       8
 i =     1000, time =      500.000, E =       -14.9520714866
  C         0.0091268646       -0.0073115596       -0.0107655129
  C        -0.0115325566       -0.0024133764        0.0147446373
  H         0.0006099494        0.0097286789        0.0001310431
  H        -0.0029528691       -0.0032539723        0.0019959925
  H        -0.0006142211        0.0016287010        0.0027234829
  H         0.0013467814        0.0015137821       -0.0028098920
  H         0.0018619690        0.0015176739       -0.0030500832
  H         0.0021404194       -0.0014380221       -0.0029727364
