       8
 i =     1000, time =      500.000, E =       -14.9520714866
  C        -2.6790280163        1.2743011531        0.4671027846
  C        -1.4235685470        1.3064538450       -0.4687049769
  H        -2.7890125206        0.2725945965        0.9338354250
  H        -2.5957633154        2.0530514578        1.2355380810
  H        -3.5893616586        1.4511417873       -0.1225795863
  H        -0.5265770306        1.0508073869        0.1119584976
  H        -1.5285122959        0.5664108150       -1.2685485804
  H        -1.2952722460        2.3085368004       -0.8928006238
