-406.83065255496956
-406.8256042446137
-406.82494805297654
-406.82757483316755
-406.8314820967276
-406.83443000390173
-406.83467356211406
-406.8315592437219
-406.8258018455199
-406.81933066278674
-406.81472310882094
-406.8143740983327
-406.81965252447725
-406.83033651651516
-406.8445612864742
-406.8593425564444
-406.8715100015634
-406.8787038397389
-406.88006479805443
-406.8763892421492
-406.8697455147521
-406.8627342649624
-406.8576604031171
-406.8558630395118
-406.857371151549
-406.8609522132028
-406.8645235168542
-406.865818054903
-406.86312710210547
-406.85591359554184
-406.8451015657795
-406.83291913807244
-406.82229529679853
-406.8159606036457
-406.81553435092326
-406.82093283097225
-406.83035333042926
-406.8408744704982
-406.8494534524671
-406.85393052784735
-406.8536665855874
-406.84961945007205
-406.84389782123407
-406.8390028878434
-406.83702610597857
-406.83903312241193
-406.8447787516905
-406.85279886897894
-406.86084047509723
-406.86651911811214
-406.8680401256242
-406.8647895081314
-406.8576143233597
-406.84866796593957
-406.8408121237755
-406.8367166336311
-406.8379420193901
-406.8443521098453
-406.8541167870487
-406.86433655287806
-406.87204795973776
-406.87520877150035
-406.8732969214397
-406.867350918415
-406.8595094248136
-406.8522647367252
-406.8476892540964
-406.84684828899947
-406.84953298317873
-406.8543506416816
-406.8591442398788
-406.8616370611482
-406.8601490202277
-406.8541943966366
-406.84476772291663
-406.83417865507016
-406.8254187337254
-406.82121503751307
-406.82308707459805
-406.8307789355207
-406.84232257054947
-406.85472679280406
-406.86501105777654
-406.8711669503683
-406.87269795806395
-406.8706031549851
-406.86688621056487
-406.86381777600826
-406.8632001918825
-406.8658324606096
-406.8712883784477
-406.8780396071378
-406.883882800112
-406.8865717936899
-406.88450681972995
-406.8772958982479
-406.8660046134296
-406.8529641155497
-406.841131487461
-406.83316875625997
-406.83055781037325
-406.8331049156323
-406.8390561867809
-406.8457844926013
-406.8507607363281
-406.8524162796431
-406.85059023796026
-406.8464577185647
-406.84203602107175
-406.8394816231619
-406.8404077925439
-406.8454003549376
-406.85383452880626
-406.86402104504566
-406.87364171688455
-406.880380643308
-406.8825994758745
-406.87987208703396
-406.87319291408835
-406.8647400296722
-406.85721028328993
-406.85292061271036
-406.85300243462046
-406.85701837228413
-406.8631698076513
-406.86900779780893
-406.87234495838686
-406.87200501745286
-406.86815402159243
-406.8621516365804
-406.85603703454245
-406.8518554339738
-406.85103471958877
-406.8539726673964
-406.8599169071235
-406.86715988089463
-406.87349866119735
-406.8768579391881
-406.8759222757542
-406.87059385685524
-406.8621062888092
-406.8527036699525
-406.84494544318574
-406.8408521816537
-406.84121715433963
-406.8453649066679
-406.8514598131062
-406.8572292768358
-406.8607977015229
-406.8613089000223
-406.85914012007527
-406.855686663485
-406.85284341945663
-406.85237583808436
-406.85536666033204
-406.8618743063195
-406.870875296035
-406.8805001529848
-406.8885133286492
-406.8929283675165
-406.89260217377364
-406.88762441437274
-406.8793468392971
-406.8699923192825
-406.861937061213
-406.8569094995373
-406.85541560000587
-406.8566271188436
-406.8587760508073
-406.85988183709196
-406.8585109847171
-406.85428462686434
-406.84798232070057
-406.84125582443727
-406.83608915816734
-406.83419131380595
-406.83649289891184
-406.84286756830875
-406.85213755343824
-406.86236071524826
-406.8713374024768
-406.87721826961194
-406.8790495766976
-406.8770789854226
-406.87268925314225
-406.8679378380323
-406.8648334545164
-406.86460876739875
-406.86727775244606
-406.8716606546691
-406.87586235900807
-406.87799948395224
-406.87688450294104
-406.872422886348
-406.8656171559771
-406.85822161341895
-406.8521938782817
-406.84912025995635
-406.8497701793695
-406.8538840644094
-406.860239280388
-406.8669791047871
-406.87213110412114
-406.8741868071626
-406.872576891896
-406.86787807094873
-406.8616491838198
-406.85591605817206
-406.8524668764902
-406.8522170270059
-406.85489663809864
-406.85918279840973
-406.86322287257093
-406.8653290010278
-406.86457774642116
-406.8611097045291
-406.85605673558433
-406.85115853682754
-406.8482153072903
-406.84854639363994
-406.85259832107994
-406.8597997702793
-406.86869188996917
-406.87730943319013
-406.8837217985171
-406.88659313829936
-406.88559220564014
-406.8815022203587
-406.87596163974206
-406.87089582430303
-406.8678307149774
-406.86734672514075
-406.86888961332653
-406.8710131189731
-406.871950178351
-406.8702827300556
-406.86545900613527
-406.85799030032933
-406.84929141411857
-406.8412497780678
-406.83567527846117
-406.8337936112675
-406.83591427604557
-406.84135142619215
-406.84861594593707
-406.85583481586445
-406.8612948480637
-406.8639607663881
-406.8638023172211
-406.86180231316126
-406.85961306753245
-406.8589572078742
-406.86098070896395
-406.8658021498492
-406.8724357001886
-406.87911978478905
-406.8839228852015
-406.8853962346959
-406.88304109214425
-406.87744685067867
-406.87008282706637
-406.8628390015789
-406.8574705438497
-406.85510682426985
-406.85595150644184
-406.85924556963005
-406.863502409675
-406.8669588377484
-406.8681280646534
-406.8662920608829
-406.8617743643489
-406.8558756655939
-406.8504638737359
-406.84733858371385
-406.8475899080551
-406.8511923442509
-406.8569946493997
-406.86311459847457
-406.867587785348
-406.869026794076
-406.8670585130475
-406.86240674602516
-406.856628128386
-406.85161008797354
-406.8490020047244
-406.849740674066
-406.85379038922053
-406.8601575537177
-406.8671740879581
-406.87297979452995
-406.87607785956254
-406.875803642284
-406.87255269825465
-406.867672769221
-406.86302902683576
-406.8603706542281
-406.8607127883996
-406.8639595718084
-406.86891649545265
-406.8736966947645
-406.87637257245535
-406.8756321996811
-406.8712081266344
-406.8639468695344
-406.85552426866735
-406.8479258489156
-406.8428650893517
-406.8413078009016
-406.84322375171774
-406.84762198211325
-406.85285661697776
-406.8571244123259
-406.8590216988539
-406.85799984608275
-406.8545707273542
-406.85017442896697
-406.84672477108586
-406.84596200062157
-406.8488275525425
-406.8550908457453
-406.8633810877201
-406.87162841190036
-406.87775327535115
-406.88034619913833
-406.879093906763
-406.8748218310642
-406.86917239946985
-406.8640560470487
-406.86106078118206
-406.8609919690346
-406.8636575499378
-406.8679431959537
-406.8721508323745
-406.87451075868734
-406.87373063552354
-406.86942530479257
-406.86229077110715
-406.85394774993216
-406.84647581685607
-406.8417641739047
-406.84088625846965
-406.8437244547864
-406.8490014741024
-406.8547260390487
-406.8588919495334
-406.8601653797117
-406.8583088830481
-406.8542125003703
-406.8495521263873
-406.8462251074921
-406.84575163757637
-406.84881624349134
-406.855063253402
-406.86318547596613
-406.871280264013
-406.87737728477583
-406.8800062690889
-406.8786481189881
-406.8739289357623
-406.8674708934064
-406.8614091685296
-406.85769807455694
-406.8574322002887
-406.86043989359433
-406.865330282684
-406.8699975084934
-406.8723895279125
-406.8712371720655
-406.86647189275544
-406.8592080587374
-406.8513410544636
-406.8449325313841
-406.8415912020222
-406.8420222983709
-406.84584976999
-406.8517376957581
-406.85776951532415
-406.86198913835943
-406.86296932505957
-406.8602584780193
-406.8545688851435
-406.84761993853834
-406.8416392192301
-406.8386439343155
-406.83973584551546
-406.84468400437305
-406.85198693298634
-406.85941394823107
-406.8648118704467
-406.86685242763184
-406.8654406656626
-406.8616694127625
-406.8573878511753
-406.85457014230946
-406.8546961990452
-406.85831390354844
-406.8648779614558
-406.87288552341175
-406.88026571874946
-406.88493085472464
-406.88536194563113
-406.8810797826723
-406.8728564943074
-406.86256299379124
-406.85264330149744
-406.8453428083031
-406.84195239232577
-406.84237061224763
-406.84519343957476
-406.8483072246238
-406.8497355392779
-406.8483853022475
-406.84441125923036
-406.8391069278484
-406.83442016154413
-406.83229928995956
-406.8340866424968
-406.8401200920247
-406.8496227671398
-406.86088570041716
-406.8716894443132
-406.8798653467742
-406.8838721686243
-406.8832375937105
-406.8787291871429
-406.8721580678814
-406.8658199161616
-406.86171880142416
-406.86084715821306
-406.86282279992093
-406.866060682486
-406.8684212700356
-406.8680584497701
-406.86411537330775
-406.85701442391235
-406.84828269356126
-406.8400328822606
-406.83430856221673
-406.83249958751384
-406.834972898221
-406.84098760999
-406.84889473200695
-406.8565685626667
-406.8619752959284
-406.86374867814123
-406.86161979824635
-406.856550635807
-406.85047487801955
-406.8456696061386
-406.8439406628368
-406.84593027759024
-406.85085377749175
-406.8568034350053
-406.8614996354964
-406.86316414768345
-406.86115773806387
-406.8561635048912
-406.84990553151397
-406.84455890275694
-406.84207409251894
-406.84361510311925
-406.84924313296017
-406.8578989245023
-406.86767152021844
-406.8762888729598
-406.8817229944794
-406.8827667469722
-406.8794185657838
-406.8729254670021
-406.86541212636314
-406.8591630538296
-406.85579085859496
-406.8556218895069
-406.8575803526681
-406.8596418952725
-406.85966412969424
-406.8562364096308
-406.84921185619555
-406.83975698876077
-406.8299621749497
-406.8221971616638
-406.8184347170887
-406.8197263734519
-406.82594178550363
-406.8358110333341
-406.84724900383816
-406.85789157198644
-406.86572763963784
-406.8696710045408
-406.8698959011861
-406.86778805024863
-406.86546256266314
-406.8649645072622
-406.867434468248
-406.87259133025634
-406.8787814901438
-406.8835952710245
-406.88478646295846
-406.88110752739925
-406.8727442582336
-406.86123615310873
-406.8489770927025
-406.83850658757666
-406.83182224718917
-406.829888089236
-406.8324368571106
-406.83809056633453
-406.844763148683
-406.85025586447546
-406.8529079294843
-406.85212713964165
-406.8486196031471
-406.84419072729105
-406.8411207171953
-406.84129562108615
-406.8454218029504
-406.85266820263485
-406.8609179132534
-406.8675366279464
-406.8703309894449
-406.8683077060462
-406.86196833797754
-406.8530923546384
-406.84414730064356
-406.83755387621073
-406.83502615634154
-406.83714405644304
-406.8432386689984
-406.8516007544689
-406.85996344403213
-406.86615155762354
-406.8687418555122
-406.8675388538376
-406.86368383885576
-406.859297244048
-406.8567153980151
-406.85757055112765
-406.86208102848155
-406.8688739912711
-406.87544475406344
-406.87906817839956
-406.87778128674967
-406.8710566871198
-406.859950306376
-406.8467416122113
-406.83424073784244
-406.8250082962593
-406.82070132196066
-406.82169422181937
-406.82704290231476
-406.8347896948581
-406.842541219461
-406.84818789998445
-406.850577116631
-406.8499250175859
-406.8477855987221
-406.8465183428068
-406.84838272532943
-406.8545886623773
-406.8646929512569
-406.87663291192814
-406.8874021164146
-406.894089011951
-406.8948519783373
-406.88947297347573
-406.8793442596579
-406.86696828281976
-406.85518939449304
-406.8464072441688
-406.84197360904176
-406.84189910971503
-406.84491875970275
-406.84889494969804
-406.85147329362576
-406.8508376248143
-406.84635999432186
-406.83892024959175
-406.83073010197126
-406.82464403379043
-406.8231484607589
-406.8273985333327
-406.836706426641
-406.8487199179136
-406.86022945979954
-406.8682668753647
-406.8710576721719
-406.86849743197786
-406.8620511449398
-406.8541885461891
-406.8475893094046
-406.84436572642176
-406.8454978832585
-406.8505977401388
-406.8580415883456
-406.8654396425145
-406.8703418712773
-406.871011859086
-406.8670479114923
-406.8596269970398
-406.85122443735696
-406.84482975398726
-406.8428918925648
-406.84638664787235
-406.8543981146619
-406.86441079641776
-406.87319829377896
-406.8779398284354
-406.87712631418253
-406.8709560621435
-406.86114966172516
-406.8503294739899
-406.8412054534446
-406.83581546878963
-406.83500475730926
-406.8382486046097
-406.84384426106726
-406.849425174397
-406.8526839661895
-406.85212229329414
-406.8476112308955
-406.84054773797
-406.8334944846881
-406.8293591597989
-406.83036656604634
-406.83720895015125
-406.8487256513522
-406.86226095559385
-406.8745582860904
-406.88282889505183
-406.8855902600262
-406.88300655545584
-406.87668255637686
-406.8690511237743
-406.86258775342947
-406.85908765924836
-406.8591822351341
-406.86219689183287
-406.8663719997653
-406.8693972416924
-406.86913501102845
-406.86434782111206
-406.855208624778
-406.84339644060196
-406.8316834364778
-406.82309320804393
-406.819894183335
-406.82280131969276
-406.8307127438295
-406.8411018705908
-406.85090894313026
-406.8575729430083
-406.8598148916453
-406.8579245140877
-406.8535172767241
-406.8489104356966
-406.84635296017916
-406.84733963407325
-406.85217964400675
-406.8599073477643
-406.8685485322356
-406.87567660049615
-406.87912855773925
-406.87769281981963
-406.8715604732382
-406.86236583370953
-406.8527497279408
-406.84554131534827
-406.8428177415438
-406.8451862448849
-406.85157732546736
-406.85964186261884
-406.86659487188365
-406.87016960961176
-406.8693273220416
-406.8645000307088
-406.8573427809602
-406.85013571261004
-406.84505831056373
-406.8435496760679
-406.84591395620225
-406.85124996979846
-406.8577146598954
-406.86305363681134
-406.86527269795346
-406.86327591300034
-406.8572775607154
-406.84883252678344
-406.8404256132792
-406.8347070974235
-406.8336110147184
-406.83767652336
-406.8458474733492
-406.85584632627985
-406.8649771442288
-406.8710403602895
-406.8730088345188
-406.87125100633307
-406.8672786640274
-406.8631629911996
-406.8608393158923
-406.861512016676
-406.8653084645964
-406.87125119953384
-406.87754020749435
-406.88207017908366
-406.8830530324995
-406.8795818286447
-406.8719683882091
-406.86172880705004
-406.85118227875995
-406.8427553159081
-406.8382071099704
-406.83805563780226
-406.84143396920393
-406.8464467442136
-406.85088698626464
-406.85302694663505
-406.8521837719737
-406.8488793466905
-406.8445852569822
-406.8411884245606
-406.84037421369624
-406.84311306397166
-406.84937821299076
-406.858148368537
-406.8676797734312
-406.87597586585355
-406.8813359071017
-406.88284141228837
-406.88063983718155
-406.87592044442806
-406.87055699631463
-406.8664998007508
-406.8651084309925
-406.8666714066219
-406.870312940134
-406.87433872559745
-406.8768848920638
-406.8766074665631
-406.87314789285375
-406.8672248480736
-406.8603601179803
-406.85437246793254
-406.8508183509911
-406.8505504957342
-406.853497866844
-406.85870844140294
-406.86462943444474
-406.86954934244363
-406.87208881763064
-406.8716111979789
-406.8684304729256
-406.86373584253147
-406.8592257815117
-406.8565486085589
-406.8567275723883
-406.8597909211373
-406.8647618205484
-406.8700237048927
-406.87391483210206
-406.87531514896324
-406.87400615894853
-406.87069683289513
-406.8667429562346
-406.86368712871206
-406.86277746303426
-406.8646035156017
-406.86893437605295
-406.87478579774967
-406.88068970204245
-406.8850983788882
-406.8868229275515
-406.88539176114443
-406.88121938795604
-406.87551070357335
-406.8698992536286
-406.865912105609
-406.864441240514
-406.8654280722341
-406.86790047408107
-406.87035761034167
-406.8713469210189
-406.87000069222535
-406.866333492936
-406.86121651737415
-406.8560724828122
-406.85242032053355
-406.85142168723627
-406.85355485564526
-406.85848998297104
-406.86518401333234
-406.8721642965672
-406.8779301819999
-406.8813732520049
-406.88210291982074
-406.8805722223349
-406.87794072913226
-406.87568736804076
-406.87508256782314
-406.87670640171257
-406.8802079326547
-406.88441728883487
-406.8877735599677
-406.8888956676403
-406.88706924499814
-406.88247753350004
-406.87611948753755
-406.8694782064439
-406.8640701751992
-406.86101993689493
-406.86077052823504
-406.862991573087
-406.86669562203235
-406.8705283427274
-406.8731642087995
-406.8737081507571
-406.8719934553359
-406.86867057257103
-406.86502938192245
-406.8625779137931
-406.86250234505894
-406.8652068872216
-406.87012693944075
-406.87590743194426
-406.88088140896286
-406.8836545809567
-406.88356758072024
-406.8808781163854
-406.8766294996206
-406.87228476680576
-406.86926568825714
-406.8685384286488
-406.8703513925405
-406.8741802709882
-406.87888450972196
-406.8830344063073
-406.8853309246535
-406.8850107337419
-406.882116767694
-406.8775308386149
-406.8727230007005
-406.8692677971394
-406.86828214911446
-406.86999963642364
-406.8736637825957
-406.8777968979206
-406.88073787979755
-406.8812311024568
-406.8788417878493
-406.8740670362565
-406.8681383559988
-406.86261623830603
-406.8589203092377
-406.85793282444433
-406.85976983775714
-406.8637660553309
-406.86867025419787
-406.87300480995515
-406.8755066980576
-406.8755333407236
-406.8733088890063
-406.86990439385903
-406.8669176043384
-406.8659258446367
-406.8678960495101
-406.8727854399419
-406.8795096803815
-406.8863038840101
-406.89133080621826
-406.89329219732434
-406.8918190736845
-406.88752829832265
-406.88176734903504
-406.8761658911104
-406.87214580098953
-406.870526957668
-406.87131949194395
-406.8737432316732
-406.87646694969806
-406.87801205833273
-406.8772278643459
-406.87370489083327
-406.86799284584475
-406.8615132901688
-406.85614946381713
-406.8536197330267
-406.8548547570578
-406.8596308964311
-406.86662423840914
-406.8738715877708
-406.87944705610266
-406.8820893331768
-406.8815526920335
-406.878598466376
-406.87467485965885
-406.8714237795726
-406.8701755172032
-406.87156434541816
-406.8753517673225
-406.88048960857355
-406.88540776415925
-406.88846479714607
-406.88845523778696
-406.8850342661467
-406.8789114598765
-406.8717084433014
-406.86547637244047
-406.862008243472
-406.86219504690104
-406.86569127978674
-406.8710406596147
-406.8762138239631
-406.87933319823037
-406.87929866970535
-406.87609978921677
-406.8707463739406
-406.86489062019155
-406.86029277796865
-406.85829781617826
-406.8594564769029
-406.8633739229627
-406.86881479018433
-406.87404248614604
-406.8773213381706
-406.87745987948927
-406.8742407210774
-406.86857863891066
-406.86230592784796
-406.857603534046
-406.85624901122264
-406.85896192904926
-406.8651217482437
-406.872986047706
-406.88031893605284
-406.8851664536072
-406.88647784366594
-406.8843691818293
-406.8799865598836
-406.8750676423791
-406.87137015409843
-406.8701399002229
-406.871750732513
-406.8755934806031
-406.880234858319
-406.88381422742464
-406.88459259001195
-406.8815194478858
-406.8746475720831
-406.86523482242825
-406.85544372025
-406.8476868241198
-406.8438247641107
-406.84452223813827
-406.8490327454248
-406.85550711461093
-406.86169256965013
-406.86572979205835
-406.8667447467436
-406.86505118368314
-406.86194911313487
-406.8592361544912
-406.8586117430293
-406.8611457432859
-406.86694057890986
-406.8750590218127
-406.8837336109788
-406.89081832334153
-406.89438632897327
-406.89332562923056
-406.88774911598153
-406.8790536965011
-406.86954835467037
-406.86172559338564
-406.85741651564706
-406.857158608872
-406.8600449992707
-406.86412201288545
-406.8671599598077
-406.86747502953676
-406.8644911026538
-406.8588751056868
-406.8522557787377
-406.84667000273356
-406.84392907078734
-406.845082915097
-406.85010817196843
-406.85788472288107
-406.8664657157713
-406.8735872097616
-406.87730594469076
-406.87659955893497
-406.87174014728475
-406.86428133825905
-406.8566037741974
-406.8511289879858
-406.8494731643936
-406.8518771377736
-406.8571561163092
-406.86319012094935
-406.8677404493749
