-1.2577011896754933 0.0006369342434435645 0.0020141045130644803 1.251373046598082 0.004006128392197013 -0.00530682891165445 0.01837227013883306 -0.32196057214401763 -0.5573232994172905 0.019762049098347112 -0.3220027690890679 0.5574154786077572 0.019521558393240154 0.6435466836817105 -7.548244655031392e-05 -0.01912266716469591 0.32036413819697285 -0.5550073576777385 -0.018128071902970406 0.322611158945237 0.5585073592708237 -0.018401878962815397 -0.6448117847068247 -0.00022368083265155017
-1.1726905176382136 -0.12472739214046134 0.09693619925217002 1.2902775912086895 -0.011153028986270203 0.04961596606044502 -0.03501302571283875 -0.26215544253406814 -0.52094803640198 -0.0638730827487147 -0.26149020558704716 0.46546211327372733 0.012970120148651244 0.654342601865775 -0.027289519239851474 -0.037862805601353265 0.3720617053706199 -0.6346175972217468 0.009313445813451728 0.337749135575878 0.5700260762594392 -0.0073216893290477605 -0.7022900710998267 0.0009805570384757995
-1.0412359780632576 -0.24458262092717076 0.19063801243643425 1.2749165096725044 -0.02554209468867444 0.09911921495838695 -0.09842977364622443 -0.18270502790464735 -0.4487036783081212 -0.1571170235979607 -0.18087622793847893 0.33840097707543915 -0.006293587450950447 0.6198897269716308 -0.05404060834049794 -0.0416563757531658 0.39770625852019187 -0.6696639495737363 0.04871193019419589 0.33009557853544236 0.542472874963984 0.016939512618908387 -0.7116981695049843 0.0021101866381269922
-0.8711987034335231 -0.35194617072552153 0.27828264082083176 1.20670367732785 -0.038852567189139306 0.1403720766395281 -0.1690109673816423 -0.08717427077243774 -0.34543960851547484 -0.2554372168275364 -0.08530841606753768 0.18500098703044537 -0.03757896095477443 0.5417459418255528 -0.07956141943721981 -0.02996387790201424 0.3963851742948876 -0.6585400254752292 0.09858989680877846 0.30026150020532144 0.4774935853653992 0.05367699778950543 -0.6728665979442439 0.002880746254964961
-0.6731774854538519 -0.4390449899046469 0.3543320104755619 1.0893451645438221 -0.050880820259655686 0.17045494005354778 -0.24314718431775414 0.01957689881764062 -0.21848516795609063 -0.3532255413731695 0.018233384288374756 0.017266556940769544 -0.07947891273683834 0.4238199557210325 -0.1031313134521198 -0.0029794149098057144 0.36832929662076047 -0.6016222961352208 0.1567833509721549 0.25008152667144284 0.3787835409059873 0.1015101249238574 -0.5878887074722449 0.003025941592576151
-0.46031294440780035 -0.49776469746266594 0.413010477538906 0.928987789918626 -0.061492421200437165 0.18622690444341183 -0.31651963963378116 0.1313772213607498 -0.0777077054814379 -0.4439879357283739 0.1211546540389999 -0.14991853639009958 -0.1298166954404276 0.27259640450037415 -0.1241223292917803 0.038332859823140226 0.3149566248856008 -0.5013425160639702 0.22040154483807065 0.18275296355194906 0.25228561513915326 0.15833857527776268 -0.46136385711312683 0.002314573912671262
-0.24788918814517036 -0.5207464310610541 0.44920287855532187 0.7343480302497781 -0.07057794386102452 0.1844547561642551 -0.38424122158220336 0.24088699952131445 0.06462274443907401 -0.5207784824330377 0.21379091465654868 -0.29979800229659065 -0.18548740889494433 0.09759337321968349 -0.1420545088450447 0.09212832890401923 0.23906600028213124 -0.36254507041669615 0.28582338813905067 0.10296355925538907 0.10637991257829012 0.22127434180093447 -0.3007552548560307 0.0005786319082035985
-0.05229645423253952 -0.5030845412985128 0.45970426658807734 0.517048829905765 -0.07802062416254195 0.1623414383689474 -0.4411759047764441 0.3400603104901727 0.19475405548869076 -0.5769829157657717 0.2865840027288686 -0.415830370924297 -0.24243332780999105 -0.08860096563111282 -0.1566466248483504 0.15545476941003816 0.1451387681994798 -0.19303289732738899 0.3487498318421669 0.01690209278352814 -0.04813704695439852 0.2865684938346117 -0.11674809175636304 -0.0022473807027064857
0.11056358592804846 -0.44415664637548 0.44439924024297117 0.2915619464087998 -0.08365936706544125 0.11837563605163523 -0.48245522825130055 0.42092539749989577 0.2989166435602065 -0.6072671016993698 0.33156122046477426 -0.48432172573199056 -0.2957285322069615 -0.2707391012845819 -0.16783878602470492 0.22403969180390435 0.03958805695888462 -0.0039929540596088334 0.40439089533505074 -0.06800967919962653 -0.19852651688356554 0.3496159285101976 0.07674132036357609 -0.006079702521335775
0.2269893847611887 -0.34896217410988595 0.4068843048990693 0.07474859200217791 -0.08729078802541027 0.05336393512662446 -0.5040773007925825 0.47657793839728274 0.3652581190391998 -0.6084705579551366 0.343770376353578 -0.49697409866780456 -0.33986620248605925 -0.43201484310503685 -0.1757928895978422 0.29222940993115665 -0.0692500822077924 0.18998519391767263 0.4478501543345394 -0.1437433328130153 -0.33115940846304104 0.4051511088327758 0.2631757745384181 -0.010643194656402774
0.28733624066459346 -0.22823406608501165 0.3541116515081922 -0.11533288972880996 -0.08872308274676627 -0.028697388481194266 -0.5035129436491192 0.5022056199679236 0.38582578731706496 -0.5801933494366456 0.32225107080557275 -0.4525900035775081 -0.3693290495154235 -0.5559467205013962 -0.1808232837822229 0.35317437642029975 -0.17150894322487173 0.37158140787384636 0.47465420816026715 -0.20260155598263774 -0.43308302333918114 0.44765016364639754 0.4248307695014867 -0.015450165118447826
0.2873979677092416 -0.09691999101785387 0.29497790892402065 -0.2613497462214554 -0.08786584610022245 -0.12040539344073344 -0.48015003886516067 0.4958979068762159 0.3580931281632979 -0.5248734938614512 0.27019323551504015 -0.3572853441149198 -0.3793828856212421 -0.6288598688068421 -0.1832924478434494 0.3994217551123369 -0.2567766124495411 0.52245280537919 0.48136288993187165 -0.23835980566178286 -0.4939077804712149 0.47196732308351236 0.5449635231632095 -0.0198315717277742
0.2290400349345593 0.02867439767674393 0.23833130755436535 -0.34913806841921907 -0.08481715538689295 -0.21174522157006917 -0.4354310935838116 0.45896369631848927 0.28546500206967784 -0.4473080115223724 0.19421099222159272 -0.22313048802030505 -0.36692953149657576 -0.6423113920266255 -0.18348493091036616 0.42392188967688554 -0.31560741737507286 0.6258439750854123 0.4661260132471055 -0.24731779646346336 -0.5075398465548433 0.4741088309003257 0.610476316667346 -0.023025102966478927
0.11990735533216079 0.1341684109504705 0.19112142096803053 -0.37012297531777305 -0.07987331481926646 -0.29189057453020706 -0.37264067152223423 0.39566642240670924 0.17661732925248622 -0.35383518078547416 0.10301874541359997 -0.06573725080994228 -0.3311763108952102 -0.5948532757146743 -0.18151087904231702 0.4212825442975459 -0.3412292831103673 0.6695882305856952 0.4290372125408237 -0.2289592457310882 -0.47325664904259307 0.4519665933366824 0.6143042984638426 -0.024306900735509288
-0.02767335923050126 0.20969356866646652 0.15732054183963712 -0.32305640716374323 -0.07344301152892416 -0.3515040438262507 -0.29640840901537147 0.31247173081524576 0.04390151445391739 -0.25137861221985836 0.005953373938707425 0.09839792282028723 -0.27389168513437184 -0.49231921924204386 -0.17727318167297576 0.3889300344274603 -0.33095559711560446 0.6486241856181757 0.3721628988487631 -0.18600848408782414 -0.3957843023443562 0.4057872511764462 0.5568198002856076 -0.023139722745319887
-0.1983566338134189 0.25101032740332224 0.13783212496612018 -0.21446568011187794 -0.06589501884200237 -0.3847003023357065 -0.21206994161467438 0.21702772270363047 -0.09870104045614805 -0.14664542950861498 -0.08826406884194528 0.2540783013903464 -0.19916267979606134 -0.34675158075118256 -0.17051205453912816 0.32777637663708437 -0.28678038358817476 0.566125219114996 0.29923417994258455 -0.12387614616427868 -0.28436051271671814 0.33821590392782747 0.4456779526882105 -0.019288349052280288
-0.37563009316553586 0.25905806026910805 0.13116690512232024 -0.057626340797326446 -0.05743751383910218 -0.3899412287311822 -0.1250244162618347 0.11715683031000736 -0.23750400369080193 -0.0455703815191656 -0.17231145136956702 0.3887511267852246 -0.11271367094500126 -0.17412647022280167 -0.16090764212334635 0.24213610314257128 -0.21491960323244355 0.4327964019011903 0.2151194190855706 -0.04967491631368113 -0.1510926820698507 0.2539062483091333 0.29433131247490446 -0.0128658053512727
-0.5434823980506523 0.2384498816898653 0.1344509391922318 0.12963004877768236 -0.04808463244539332 -0.36965940027594757 -0.04027548252617024 0.020073543388300908 -0.36049830775130237 0.04692312630877331 -0.24059599178133376 0.49303181590925893 -0.02103753738022459 0.008235845057331843 -0.14819400494145282 0.1389308447635904 -0.12447265238164562 0.26459952805507897 0.12520404381295505 0.028884924745632576 -0.009106790825920969 0.15880350786205633 0.11951013017846378 -0.004303291353140953
-0.6876784455657484 0.1956394302882098 0.144373942142687 0.3276128030540906 -0.03773316029564944 -0.32894876368227444 0.03787736832964746 -0.06809365657101513 -0.458123932889016 0.12697323532347857 -0.28921916235226486 0.5605836022050419 0.0694429046603262 0.18392761316791936 -0.1322442230570926 0.026465547525982503 -0.025694869638399207 0.0797767750378416 0.03481477823263884 0.10444698293417061 0.12906051343245634 0.05932950637871954 -0.06133729112021848 0.005739833536916098
-0.7965075910135742 0.1373897872363903 0.1578351789902061 0.5171817816501317 -0.0262786488951277 -0.2739792003437076 0.10597121516229638 -0.1425078714651216 -0.5235166713022329 0.19171727926740137 -0.3158030731832882 0.5877726221646032 0.1530140726029913 0.3390267990110283 -0.11311978183121678 -0.08683165070763764 0.07158489584453354 -0.1039652507618342 -0.05119407318417044 0.17066344623535323 0.2525606871817526 -0.03833048412382104 -0.23218925578141686 0.016486787632415012
-0.8610910181431364 0.06986311547626724 0.1722144642161924 0.6815701112396307 -0.013709075765455273 -0.21070725694025286 0.16138836642324436 -0.19961168696738638 -0.5523345262508523 0.23920116831742125 -0.3192514110294908 0.5732199211727294 0.22500095528427286 0.4627545873808098 -0.09106929151270939 -0.19336371088648166 0.15904684734946378 -0.27140161800446033 -0.12870703817011772 0.22253372469262217 0.35280449237759864 -0.12875398137159996 -0.379773652163803 0.027149183287211335
-0.8754717226180666 -0.00168058101124192 0.18537091221079713 0.8073093867394606 -0.00016363014726326994 -0.14413790973045829 0.20231840553391192 -0.23704955092298555 -0.542505157735252 0.2683521251069451 -0.29959075081312697 0.5175142921373095 0.2818776292490337 0.5475336235922632 -0.06650242139455838 -0.28689990903184365 0.2303519711748228 -0.41068172142120807 -0.1944511898209395 0.25646442396173424 0.4235693143006526 -0.2075184513891549 -0.4940342273245886 0.03699231748912649
-0.836593516388223 -0.07269403375200523 0.19544175359291124 0.8844803795786039 0.014067086453766873 -0.078147173860042 0.22771673441833173 -0.25355011452612797 -0.4939919481042373 0.2789990632895478 -0.2579298447761945 0.42314089138122085 0.3212268152978017 0.5886856311808782 -0.039960589237839864 -0.36272280049368494 0.2811406430972497 -0.5134101790037121 -0.24600850331724755 0.2701803697148311 0.46087882878654024 -0.27126840400757146 -0.5680719710096997 0.04537877262732298
-0.7443683237437808 -0.13889547152632498 0.20058110084476982 0.9065755145323692 0.02856642162846656 -0.0156877247659532 0.23732293117970607 -0.24893732920129116 -0.40871737803868846 0.27202074478742266 -0.1965435998518232 0.29462403256958913 0.3416412355429607 0.5840508115019662 -0.012084873904290173 -0.4175424325226212 0.30877825370942424 -0.5742461769987584 -0.2817861751096579 0.26260809552967307 0.4627657665373464 -0.31766090090412497 -0.597790740505333 0.05178030527331289
-0.6018681912991686 -0.19577705115591373 0.19873282734327297 0.8702461508506583 0.04282831028419989 0.04082402224299756 0.23172848324203493 -0.2241750192475902 -0.2906087304813198 0.24948970500403214 -0.11902171828011952 0.13878067177026285 0.342641816332841 0.533727200718991 0.016409351147463645 -0.44930805724336187 0.31202110384893034 -0.5903526727628833 -0.30100689386443635 0.23378751006949847 0.4291302967596024 -0.3452812594141007 -0.5815394813489275 0.05578020131145179
-0.415601630160628 -0.23827795202160382 0.1875455615473337 0.7751406130433439 0.056297604969020164 0.08911085652524976 0.21248621350057537 -0.18152417678785684 -0.14576912041883555 0.21484505152523692 -0.030405685984493287 -0.03504676372849489 0.32467552852506554 0.44003708091189525 0.04474814787103231 -0.45704869754780264 0.2907668841788538 -0.5609828122503778 -0.3037368192080776 0.18486666745919797 0.3617114416393609 -0.3536187453215255 -0.5198903102732814 0.057075106564388196
-0.19575416319558978 -0.26081088413691966 0.1645125961473937 0.6239706796079694 0.06841345552417341 0.12676038911954027 0.182219439077572 -0.12470334204150939 0.017362711056720517 0.17291753751730543 0.06279457696428276 -0.21499225746551867 0.2892012777586888 0.307727716385159 0.07212726491377856 -0.4408184340197959 0.24595374910436738 -0.4873371206594073 -0.2909722998946618 0.11817982597723033 0.26420967682524277 -0.3430837478282717 -0.4156600970464701 0.05548824740550856
0.043863313003176724 -0.2577972581284764 0.12739122984849632 0.42278153343485375 0.07866673724426415 0.15117060192219597 0.14466135033824465 -0.05897141855731316 0.18803286272911315 0.1297227833264315 0.15286736545672244 -0.38716731181248554 0.23882575126072128 0.14432010324253158 0.09774908436921616 -0.4017716611246231 0.17962024918737407 -0.372709139999366 -0.264727466148285 0.03735822660634342 0.14246125736484375 -0.3151185426781599 -0.2741535879865893 0.050996509617410916
0.28640494596264954 -0.2247607474005134 0.0748672072753284 0.18131722355235963 0.08666683785292109 0.1597915570951383 0.10453477068044127 0.00900670292213629 0.3535970246420358 0.091895129847472 0.23152461533032886 -0.5367520624482404 0.17743705864614231 -0.039560433026541254 0.12087519055220446 -0.34235854247116354 0.09511173416592815 -0.22290302766600933 -0.22811160958374116 -0.05258126047169994 0.004561121577954138 -0.2723403071990903 -0.1034804589767382 0.04376450550876536
0.5133166114175394 -0.15981799832002838 0.007298487694138365 -0.08677264389013202 0.09221443514882371 0.15068512622365962 0.06718979553978081 0.07161270489630438 0.500433636239369 0.06579975432774451 0.290877004527166 -0.6497617444999702 0.1102343561685019 -0.2301520267665378 0.14088883237910035 -0.2665682783084136 -0.0026703837366785113 -0.0467502093368987 -0.18527652187161342 -0.14528780990741724 -0.13922722610917393 -0.21864752797839318 0.0851689234367338 0.03419337859448369
0.7063640354777784 -0.06516340115361495 -0.07272985950342672 -0.36406542542125764 0.0953455759982652 0.12334749650149157 0.037979132592692 0.1211114646481302 0.6154264050156496 0.0564196398093725 0.3246302616828432 -0.7151113192333489 0.04351006914012244 -0.4111141706881874 0.15735925236880333 -0.18010886677397112 -0.10709029809678818 0.143512375758423 -0.1412002392515467 -0.2333576936121543 -0.2769430240839554 -0.15919466521229744 0.2775944593492173 0.022949013739583017
0.8500689611518002 0.05206160452776403 -0.16033977799517385 -0.630357757511998 0.09632593249069457 0.07959650985313776 0.021461239754255942 0.15077196780396765 0.6877507347021748 0.06637527005891906 0.32918142794936456 -0.7265260042459334 -0.015875327879073652 -0.5648745214097802 0.17008044859398516 -0.0903175009489342 -0.2098831155335754 0.3323966078766704 -0.10120974294175805 -0.30895508904251356 -0.3959636367897164 -0.10009569422725212 0.45732386729232205 0.010954020459535162
0.93407495920297 0.1801181998784393 -0.24895294608188065 -0.8645437680023603 0.09557633764901742 0.024152156320764513 0.02060494413146843 0.15601028195863348 0.7105941943726566 0.09535738250397263 0.3042805046821402 -0.6836685530785261 -0.06135532483777773 -0.6748075031503634 0.17906038633223328 -0.005679536025624527 -0.3016719148387919 0.5021101600498256 -0.07030989093005001 -0.36469841559245486 -0.48446226737288334 -0.04783282374417918 0.607127305678393 -0.0006786118256555881
0.954833835280585 0.30442118516260364 -0.3314089751623003 -1.047342147520515 0.09354212196704101 -0.0354707026440169 0.03621815832786553 0.13527928692367788 0.6823244831909779 0.1401757112068408 0.253048374029006 -0.5921133693485686 -0.0877204656431838 -0.7278890900124477 0.18446057714180772 0.0651379420901317 -0.3729983222561035 0.634498750549312 -0.0524129612010994 -0.3947116792439527 -0.5331159363694898 -0.008384495957589113 0.7111999102815401 -0.010776439506529605
0.9161470425387437 0.4103009873231748 -0.4012445181282873 -1.16436522390197 0.09055730774060079 -0.09000483423593976 0.06679137739421788 0.09038487927832645 0.6067403083730637 0.1954187627884609 0.1813495783145161 -0.46223107992434137 -0.09210069468726322 -0.7171465222189385 0.1865040590795702 0.11463757601703167 -0.4157570122089562 0.7138171853113603 -0.04966531067227803 -0.39557971966597183 -0.5366431093807624 0.01376779976161336 0.757707890847596 -0.018289897135815858
0.8284109394461452 0.4858837531765577 -0.453703712906397 -1.2087399138969097 0.08677174914623259 -0.13026075066706785 0.10881798686011453 0.026130059701346246 0.49233068121992796 0.2544780719361711 0.09673699532159488 -0.30734854037564013 -0.07454781455646928 -0.6430968948950251 0.1853838448596883 0.13789743612857233 -0.4247044717720963 0.7296843576512128 -0.062073428807959935 -0.36694544662513173 -0.49473649844151596 0.01646591541696793 0.7409436811842941 -0.022479304045619406
0.7067787338485458 0.5241119793855276 -0.4862021843028353 -1.182421767715049 0.08217107371727599 -0.1491705047791433 0.15745677945384137 -0.05056876546921317 0.3507650624984151 0.3106271699867109 0.007287478230410302 -0.14171140027064433 -0.03800685936916174 -0.5137507216171596 0.1812137726456426 0.13358058991957564 -0.3985664005133057 0.6792968755235546 -0.08754623740869795 -0.31156240876090113 -0.41209248058250203 0.00027851217862648016 0.6624545608884798 -0.023052778320885474
0.5687358761252844 0.5233336498949424 -0.4982303345292252 -1.0956908219759542 0.07666473748487361 -0.14328614953364374 0.20735192103752795 -0.13182667076181825 0.19510258909075726 0.3578714682177296 -0.0793778735248847 0.02119542368303002 0.012319811026573077 -0.34299068417831824 0.1740330877560564 0.10416925237090455 -0.3403360921572441 0.5680969981278524 -0.12233577769272524 -0.2347961846921242 -0.2975367582056493 -0.031666925212662 0.530756512133308 -0.02021000211737685
0.431680620263155 0.48653167117269774 -0.4908741152847483 -0.9649918164909737 0.07018271902558541 -0.11319339765687346 0.25336944310712495 -0.20988296640959214 0.038152496936516324 0.3914555622121446 -0.15674149341272173 0.16977063580549753 0.06998999941717798 -0.14814873295702413 0.16385930968785706 0.05533118385571411 -0.2566445348802485 0.4086198149582062 -0.16173260628303482 -0.14374185185759555 -0.16252890264249725 -0.07436088507237656 0.35970316838826166 -0.014580006107425441
0.3110008644042942 0.41974767798675333 -0.4662122017672111 -0.8098385500640123 0.06272534229840951 -0.06281519721162022 0.2911292348892983 -0.2779041641513722 -0.10871290073178819 0.4080381851437189 -0.21968987891019925 0.2948011815772639 0.12838600508744297 0.052762626088555954 0.15075983219705583 -0.005332838191213786 -0.15643571725619418 0.21799112534182752 -0.20080667400934663 -0.04620249751528867 -0.019484210548748365 -0.12186258672508395 0.16610898895678794 -0.007081023788925968
0.21885333450188138 0.3303982487993534 -0.4268003579344513 -0.6496805079245493 0.05436243332294575 0.0019410234768649397 0.31728146264208396 -0.3304463901349079 -0.2362288239413036 0.405649625166536 -0.2645628486974086 0.3895571830522796 0.18157412303782913 0.2431773999220821 0.1348938425646567 -0.06971658830721952 -0.04940877628345713 0.014895305630054985 -0.23503461337249745 0.05023649152352603 0.11972385055747625 -0.1682453288562512 -0.032762616250610624 0.0012470775919673704
0.16374219079674526 0.22594785658239364 -0.3753267287037717 -0.5015526677517976 0.04519642484906011 0.07466518541569069 0.32955893274182985 -0.3635881052619426 -0.3373822031596037 0.3835066214141512 -0.28903628492675115 0.4495756833712119 0.224796542298697 0.4093339028652537 0.11655177260353261 -0.13040262413939724 0.0553294920698353 -0.1830423412125267 -0.26069956565453517 0.1388432884166041 0.24476021216458896 -0.20830543521297437 -0.2211172833933463 0.009397340909539224
0.15054650776792988 0.11323825312259035 -0.3144973384438449 -0.3787611825929142 0.0353320944726998 0.1494572547722921 0.32671879449016267 -0.37487042988388697 -0.4073709067407894 0.3418628646352912 -0.2919933929455469 0.47246886817679423 0.25463092916119695 0.5407596152315874 0.09614366698773279 -0.18136363196438474 0.15010702910491314 -0.3609188630950668 -0.27506396419322926 0.2141119220281918 0.3473831876688801 -0.23795696521878598 -0.38584127050029016 0.016484519919428522
0.18085470780503568 -0.001670785108205041 -0.24707496091227507 -0.29054546591698244 0.02485480796095942 0.22147114946336516 0.3084251384015279 -0.36316332816679064 -0.4433983509207118 0.28188772854224337 -0.2734380088397095 0.4577849277952578 0.2689209302588739 0.6301994392638616 0.07418558211677014 -0.21821585518456807 0.2290383740019184 -0.5072778562851183 -0.27640421856368913 0.2718776731810211 0.42158897351427593 -0.25434389634670057 -0.5169095789586582 0.02180714054668731
0.25335157394016794 -0.11326120793159646 -0.17604742881061153 -0.24239704440220725 0.013830560389731529 0.28694738702278305 0.2751442186072432 -0.3285269176447241 -0.4444929158154767 0.205632567790644 -0.23448947265404668 0.4070540439874391 0.26659208158146236 0.6732528701984823 0.0512690156990573 -0.23811493893909882 0.28798542364348784 -0.6140537650297954 -0.26390536619751603 0.30928973868751997 0.46349688028951463 -0.25575460408593126 -0.6073340223723996 0.024843921910183007
0.36410759151307 -0.21615736314656164 -0.10481790056034182 -0.2366457077497565 0.002308974049990337 0.34295790775524365 0.22808237099861375 -0.27216073107003314 -0.41147396572209155 0.11605434641751192 -0.17746093391007947 0.32395620585198587 0.24746554747761482 0.6679709244232034 0.028037041772382244 -0.2395074278413427 0.32431927132910854 -0.6761410829370218 -0.23757810288385253 0.3247381451714068 0.47119151327402314 -0.24146443329544579 -0.6528494337060198 0.025242149794112153
0.5067294194124174 -0.304780805361493 -0.037334279351517834 -0.2730276196378369 -0.00966158346563167 0.3870462231380958 0.16917173846219244 -0.1964035775737685 -0.34704641943487047 0.017076778674376337 -0.10597578658371358 0.2145690281744686 0.21213563330039412 0.6146637901075739 0.005155766316633769 -0.2218540895679092 0.3366462505912898 -0.6908679761679372 -0.1981588799850256 0.31779348240963673 0.44457265600885865 -0.21159458063596662 -0.6515959694938046 0.022793719108762156
0.6724275152311137 -0.3732511028343119 0.021960861662374688 -0.349049257373891 -0.022022763542037655 0.4169205238060405 0.10107723342713476 -0.1048274393530628 -0.25597975044738364 -0.08642219224510872 -0.025038641836848362 0.08753990221051347 0.16193488011078214 0.5159324929094474 -0.016722017860458075 -0.18544898632933196 0.32463054450419065 -0.657669902459651 -0.1470683142718417 0.2892205404635582 0.3853495573054894 -0.1670076306486089 -0.6039703355266133 0.017427415438827105
0.8501098519764455 -0.4156933259837008 0.06846536095475306 -0.4600892275797046 -0.03468591454229544 0.4303098828936386 0.02719528316685733 -0.002293922812095878 -0.14528356244499813 -0.1887407851307846 0.05904735866022583 -0.04603824001885453 0.09900017802431833 0.37697529948068054 -0.03699376759130833 -0.13136139879190756 0.2889602625485374 -0.5780239811459981 -0.08640686847027938 0.24105696486676217 0.2971266672517432 -0.10929850032955347 -0.5126908306196007 0.009213306487603863
1.026666477483341 -0.42703907972058464 0.09808740554953393 -0.5992636226611616 -0.04750407220982026 0.4250659328808476 -0.04841311144281736 0.10507093310665978 -0.024210546073511894 -0.2836735808012391 0.13902282340801073 -0.17324842306728658 0.026375101259045144 0.20600330029738775 -0.05517108640419171 -0.06152050793134921 0.2314783920377312 -0.45571618219785226 -0.018939419500327286 0.1767228781793812 0.18553033603329178 -0.040851322216342856 -0.38306171258126204 -0.0016096031374266749
1.1875777242933165 -0.40427015633069074 0.10819458690370144 -0.757165748035429 -0.060240695053957814 0.3995441859025758 -0.12121897275563258 0.21009812146416748 0.0961054038305163 -0.36507186318413487 0.207346208046308 -0.2805677190380597 -0.05188826075276498 0.014595365877699015 -0.07094219204560054 0.02110400553909845 0.1554376921428542 -0.29732342349211077 0.05192020413841596 0.10107814873985947 0.05827052555167919 0.035089186930623115 -0.22331942296486199 -0.014591956594909803
1.3179217324228885 -0.34783855060721486 0.09861185917196508 -0.9216837897793142 -0.07255190316935992 0.35325939765957104 -0.1865442917018067 0.30508059084765937 0.20348190684658354 -0.42755304324212595 0.25715187524005145 -0.3556765225928536 -0.13074153153123536 -0.18233953016393592 -0.08423901713049592 0.11227637771966992 0.06577415642469067 -0.11275436122360011 0.1222366102438716 0.0203237322945247 -0.07499644634673307 0.11438675976163701 -0.04483019177284512 -0.029028176329255344
1.4037718233618182 -0.26272645369250763 0.07223901534149378 -1.0781579296011208 -0.08398864310484466 0.28762973723243224 -0.2400271146385165 0.3825095681778054 0.28602010324176763 -0.4672083654018638 0.2832713008587309 -0.3893682481077227 -0.2043522304082081 -0.36727065517933716 -0.09526985186801791 0.20636441687831578 -0.030736206437825802 0.08448156986033663 0.18776348825111477 -0.05830915894775063 -0.203162766095834 0.19208047844188839 0.13807370581896666 -0.04393305160526919
1.433768719370604 -0.15866059566405058 0.03502606634806264 -1.2100107124866246 -0.09405232139355706 0.20664318616725816 -0.27817251533031323 0.4360393291737912 0.33380330469497266 -0.4821843419646446 0.2831377423340186 -0.3772442522977608 -0.2666035744125843 -0.5216882775703636 -0.10450206110604884 0.29639624255522173 -0.12561419647333696 0.2775762816498812 0.24429412258387365 -0.1271990296029271 -0.3146182214299819 0.2626489195056362 0.3089097399249901 -0.058052094911678905
1.4006052269998102 -0.04896700933862864 -0.00498640775153161 -1.3001480459527752 -0.10228037600831624 0.11698597022066018 -0.2988398652776638 0.4614202311209974 0.3405427420025685 -0.4728974556468282 0.25721845138525806 -0.32052617426027735 -0.3118419236697597 -0.6285885814280933 -0.11255172229920417 0.37452466793102623 -0.2093394866237823 0.4477261294603418 0.2881020283139678 -0.17924058981046131 -0.39858529812152643 0.32050037066897075 0.450683067786329 -0.06995814859124075
1.3020888534569746 0.051785210938140806 -0.03928009022246536 -1.3330106369786314 -0.10834481646129852 0.027392090829288025 -0.30154051604073345 0.45715990290164804 0.3047316355846748 -0.44186106263074315 0.20887204464280515 -0.2257588856423924 -0.3357818765623758 -0.6753386159299771 -0.12002142489492569 0.4328859174287839 -0.2725208706317606 0.5764651315849357 0.3163989983313412 -0.20885524505476238 -0.44662021057402557 0.36065719678434 0.5481665983368414 -0.07820978536417693
1.1415223761540403 0.13072623346743759 -0.06064467192455111 -1.2969476035887781 -0.11209918243213826 -0.05285766948794213 -0.2874733113162213 0.4247370322225055 0.22995258115226566 -0.39318085984953294 0.14367618074070107 -0.1035279729631218 -0.3362900242485707 -0.6561666555755113 -0.12731226612826835 0.4648058186234944 -0.30746552556938767 0.6486885917523157 0.32770342415604276 -0.21289114682154392 -0.45394024925484505 0.3795003798934152 0.5904041051104817 -0.08157636727212055
0.9272795232685649 0.17920867213584193 -0.06452205489715004 -1.1863432348224172 -0.11355328010828501 -0.11590338152441128 -0.25927758105684795 0.36829335774079996 0.12422942088057087 -0.3318831071536979 0.06845490684930741 0.03339175490927523 -0.3138186751961261 -0.5733911155054874 -0.1344760177324475 0.46604531146114186 -0.3097071212899858 0.6556431841144872 0.32202970910797085 -0.191147512522891 -0.4202022027454582 0.3753853704246287 0.5727219961926958 -0.07926383481535776
0.6716609356819663 0.19408097153482762 -0.049537675969244764 -1.0028265045081768 -0.11278609892099833 -0.15705044745275415 -0.2205741429931535 0.29390703417376546 -0.0013503588058758828 -0.2632557615577035 -0.009720055493680147 0.17192163613517505 -0.2713210756268925 -0.43695661136351693 -0.14116780221408914 0.4357125676732776 -0.2789939776474987 0.5968344855339188 0.3008554918837987 -0.1463780759176998 -0.34951732156183263 0.3489444386402933 0.49765653629496115 -0.07107682529143337
0.3893213100484467 0.17742196627059734 -0.017190616837856876 -0.7551960824693698 -0.10985841460675745 -0.1756058675540358 -0.17544714307160042 0.2086622786204517 -0.13437871176228117 -0.19232624505067822 -0.08433066153150551 0.3001557404479674 -0.21368126224901143 -0.2624652656069684 -0.14671671591480936 0.37649289882152265 -0.21935261702438313 0.48014662444016515 0.26684763895108266 -0.08377812117816234 -0.2496968073635126 0.30297675483433584 0.3744203068537908 -0.05746987888567127
0.09562773914337785 0.13510192708554405 0.02899666488893514 -0.4580198957707786 -0.10477985851799702 -0.17453069391929826 -0.12796005556925039 0.11975346452366493 -0.26269597583565746 -0.12354375909005251 -0.1499170142970293 0.4082793031979967 -0.14686098565528316 -0.06834643200701715 -0.15027240760232474 0.29413291072851505 -0.13820111426492193 0.32010286269392624 0.22347326749350102 -0.010110071274118537 -0.13095913427601835 0.24196419918534148 0.2171126770942196 -0.039466042687357546
-0.19471754068162256 0.07487921946928859 0.084491082942026 -0.12941093936644804 -0.0975454221457628 -0.15916921129102052 -0.08181628719232614 0.03378805960804123 -0.3756035079588689 -0.06062829399742647 -0.2022860353451365 0.48893015046586913 -0.07702054216667453 0.12694332825152976 -0.15097493068736167 0.1963653401275836 -0.0448412320898111 0.13495151755072582 0.17455657464369964 0.06728729177158094 -0.0044615170415634045 0.171365917898327 0.04228778726702322 -0.018481840271069184