 DBCSR| CPU Multiplication driver                                           XSMM
 DBCSR| Multrec recursion limit                                              512
 DBCSR| Multiplication stack size                                           1000
 DBCSR| Maximum elements for images                                    UNLIMITED
 DBCSR| Multiplicative factor virtual images                                   1
 DBCSR| Use multiplication densification                                       T
 DBCSR| Multiplication size stacks                                             3
 DBCSR| Use memory pool for CPU allocation                                     F
 DBCSR| Number of 3D layers                                               SINGLE
 DBCSR| Use MPI memory allocation                                              F
 DBCSR| Use RMA algorithm                                                      F
 DBCSR| Use Communication thread                                               T
 DBCSR| Communication thread load                                             87
 DBCSR| MPI: My node id                                                        0
 DBCSR| MPI: Number of nodes                                                   4
 DBCSR| OMP: Current number of threads                                         1
 DBCSR| OMP: Max number of threads                                             1
 DBCSR| Split modifier for TAS multiplication algorithm                  1.0E+00


  **** **** ******  **  PROGRAM STARTED AT               2023-04-15 13:52:47.074
 ***** ** ***  *** **   PROGRAM STARTED ON                            lujunbo-PC
 **    ****   ******    PROGRAM STARTED BY                               lujunbo
 ***** **    ** ** **   PROGRAM PROCESS ID                                  3192
  **** **  *******  **  PROGRAM STARTED IN /home/lujunbo/code/github/CP2K_kit/ex
                                           ample/deepff/active_learning/c2h6/mod
                                           el_devi/cp2k_md/sys_4/data/task_823

 CP2K| version string:                                          CP2K version 8.2
 CP2K| source code revision number:                                  git:310b7ab
 CP2K| cp2kflags: omp libint fftw3 libxc elpa parallel mpi3 scalapack xsmm plume
 CP2K|            d2 spglib mkl libvori libbqb
 CP2K| is freely available from                            https://www.cp2k.org/
 CP2K| Program compiled at            2021年 06月 10日 星期四 16:30:34 CST
 CP2K| Program compiled on                                            lujunbo-PC
 CP2K| Program compiled for                                                local
 CP2K| Data directory path                       /home/lujunbo/bin/cp2k-8.2/data
 CP2K| Input file name                                                  cp2k.inp

 GLOBAL| Force Environment number                                              1
 GLOBAL| Basis set file name            /home/lujunbo/bin/cp2k-8.2/data/BASIS_MO
 GLOBAL| Potential file name            /home/lujunbo/bin/cp2k-8.2/data/POTENTIA
 GLOBAL| MM Potential file name                                     MM_POTENTIAL
 GLOBAL| Coordinate file name                                      __STD_INPUT__
 GLOBAL| Method name                                                        CP2K
 GLOBAL| Project name                                                       test
 GLOBAL| Run type                                                   ENERGY_FORCE
 GLOBAL| FFT library                                                       FFTW3
 GLOBAL| Diagonalization library                                            ELPA
 GLOBAL| Minimum number of eigenvectors for ELPA usage                        16
 GLOBAL| Orthonormality check for eigenvectors                          DISABLED
 GLOBAL| Matrix multiplication library                                    SCALAP
 GLOBAL| All-to-all communication in single precision                          F
 GLOBAL| FFTs using library dependent lengths                                  F
 GLOBAL| Grid backend                                                       AUTO
 GLOBAL| Global print level                                                  LOW
 GLOBAL| MPI I/O enabled                                                       T
 GLOBAL| Total number of message passing processes                             4
 GLOBAL| Number of threads for this process                                    1
 GLOBAL| This output is from process                                           0
 GLOBAL| CPU model name                 Intel(R) Core(TM) i5-8265U CPU @ 1.60GHz
 GLOBAL| CPUID                                                              1002

 MEMORY| system memory details [Kb]
 MEMORY|                        rank 0           min           max       average
 MEMORY| MemTotal              7906088       7906088       7906088       7906088
 MEMORY| MemFree               5177832       5177832       5177832       5177832
 MEMORY| Buffers                123744        123744        123744        123744
 MEMORY| Cached                1238600       1238600       1238600       1238600
 MEMORY| Slab                   183100        183100        183100        183100
 MEMORY| SReclaimable           116448        116448        116448        116448
 MEMORY| MemLikelyFree         6656624       6656624       6656624       6656624


 GENERATE|  Preliminary Number of Bonds generated:                             0
 GENERATE|  Achieved consistency in connectivity generation.

 *******************************************************************************
 *******************************************************************************
 **                                                                           **
 **     #####                         ##              ##                      **
 **    ##   ##            ##          ##              ##                      **
 **   ##     ##                       ##            ######                    **
 **   ##     ##  ##   ##  ##   #####  ##  ##   ####   ##    #####    #####    **
 **   ##     ##  ##   ##  ##  ##      ## ##   ##      ##   ##   ##  ##   ##   **
 **   ##  ## ##  ##   ##  ##  ##      ####     ###    ##   ######   ######    **
 **    ##  ###   ##   ##  ##  ##      ## ##      ##   ##   ##       ##        **
 **     #######   #####   ##   #####  ##  ##  ####    ##    #####   ##        **
 **           ##                                                    ##        **
 **                                                                           **
 **                                                ... make the atoms dance   **
 **                                                                           **
 **            Copyright (C) by CP2K developers group (2000-2021)             **
 **                      J. Chem. Phys. 152, 194103 (2020)                    **
 **                                                                           **
 *******************************************************************************


 TOTAL NUMBERS AND MAXIMUM NUMBERS

  Total number of            - Atomic kinds:                                   2
                             - Atoms:                                          8
                             - Shell sets:                                     8
                             - Shells:                                        28
                             - Primitive Cartesian functions:                 40
                             - Cartesian basis functions:                     58
                             - Spherical basis functions:                     56

  Maximum angular momentum of- Orbital basis functions:                        2
                             - Local part of the GTH pseudopotential:          2
                             - Non-local part of the GTH pseudopotential:      0


 SCF PARAMETERS         Density guess:                                   RESTART
                        --------------------------------------------------------
                        max_scf:                                             100
                        max_scf_history:                                       0
                        max_diis:                                              4
                        --------------------------------------------------------
                        eps_scf:                                        1.00E-06
                        eps_scf_history:                                0.00E+00
                        eps_diis:                                       1.00E-01
                        eps_eigval:                                     1.00E-05
                        --------------------------------------------------------
                        level_shift [a.u.]:                                 0.00
                        --------------------------------------------------------
                        Outer loop SCF in use 
                        No variables optimised in outer loop
                        eps_scf                                         1.00E-06
                        max_scf                                                6
                        No outer loop optimization
                        step_size                                       5.00E-01

 Number of electrons:                                                         14
 Number of occupied orbitals:                                                  7
 Number of molecular orbitals:                                                 7

 Number of orbital functions:                                                 56
 Number of independent orbital functions:                                     56

 Extrapolation method: initial_guess


 SCF WAVEFUNCTION OPTIMIZATION

  ----------------------------------- OT ---------------------------------------
  Minimizer      : CG                  : conjugate gradient
  Preconditioner : FULL_ALL            : diagonalization, state selective
  Precond_solver : DEFAULT
  Line search    : 2PNT                : 2 energies, one gradient
  stepsize       :    0.15000000                  energy_gap     :    0.08000000
  eps_taylor     :   0.10000E-15                  max_taylor     :             4
  ----------------------------------- OT ---------------------------------------

  Step     Update method      Time    Convergence         Total energy    Change
  ------------------------------------------------------------------------------
     1 OT CG       0.15E+00    0.7     0.00059157       -14.9505041050 -1.50E+01
     2 OT LS       0.19E+00    0.5                      -14.9505166753
     3 OT CG       0.19E+00    0.9     0.00026151       -14.9505173256 -1.32E-05
     4 OT LS       0.13E+00    0.5                      -14.9505186545
     5 OT CG       0.13E+00    0.9     0.00001923       -14.9505190646 -1.74E-06
     6 OT LS       0.18E+00    0.5                      -14.9505190766
     7 OT CG       0.18E+00    0.9     0.00000403       -14.9505190776 -1.30E-08
     8 OT LS       0.17E+00    0.5                      -14.9505190781
     9 OT CG       0.17E+00    0.9     0.00000089       -14.9505190781 -5.39E-10

  *** SCF run converged in     9 steps ***


  Electronic density on regular grids:        -14.0000000000        0.0000000000
  Core density on regular grids:               13.9999999989       -0.0000000011
  Total charge density on r-space grids:       -0.0000000010
  Total charge density g-space grids:          -0.0000000010

  Overlap energy of the core charge distribution:               0.00000160749568
  Self energy of the core charge distribution:                -35.13285960674677
  Core Hamiltonian energy:                                     11.41278923743527
  Hartree energy:                                              14.42923100113807
  Exchange-correlation energy:                                 -5.65968131745914

  Total energy:                                               -14.95051907813689

  outer SCF iter =    1 RMS gradient =   0.89E-06 energy =        -14.9505190781
  outer SCF loop converged in   1 iterations or    9 steps


 ENERGY| Total FORCE_EVAL ( QS ) energy [a.u.]:              -14.950519078156379

 -------------------------------------------------------------------------------
 -                                                                             -
 -                                DBCSR STATISTICS                             -
 -                                                                             -
 -------------------------------------------------------------------------------
 COUNTER                                    TOTAL       BLAS       SMM       ACC
 flops     7 x     7 x     7                20580       0.0%    100.0%      0.0%
 flops    13 x     5 x     7                60060       0.0%    100.0%      0.0%
 flops     5 x    13 x     7                60060       0.0%    100.0%      0.0%
 flops    13 x    13 x     7                78078       0.0%    100.0%      0.0%
 flops     5 x     5 x     7                80850       0.0%    100.0%      0.0%
 flops     7 x     7 x    28               137200       0.0%    100.0%      0.0%
 flops    28 x     7 x     7               186592       0.0%    100.0%      0.0%
 flops    13 x     7 x    13               198744       0.0%    100.0%      0.0%
 flops    13 x     7 x     5               229320       0.0%    100.0%      0.0%
 flops     5 x     7 x    13               229320       0.0%    100.0%      0.0%
 flops     5 x     7 x     5               264600       0.0%    100.0%      0.0%
 flops    28 x     7 x    28               526848       0.0%    100.0%      0.0%
 flops inhomo. stacks                           0       0.0%      0.0%      0.0%
 flops total                         2.072252E+06       0.0%    100.0%      0.0%
 flops max/rank                      1.054648E+06       0.0%    100.0%      0.0%
 matmuls inhomo. stacks                         0       0.0%      0.0%      0.0%
 matmuls total                               1936       0.0%    100.0%      0.0%
 number of processed stacks                   697       0.0%    100.0%      0.0%
 average stack size                                     0.0       2.8       0.0
 marketing flops                     2.281636E+06
 -------------------------------------------------------------------------------
 # multiplications                            134
 max memory usage/rank             342.278144E+06
 # max total images/rank                        1
 # max 3D layers                                1
 # MPI messages exchanged                    1072
 MPI messages size (bytes):
  total size                         1.300656E+06
  min size                           0.000000E+00
  max size                           6.272000E+03
  average size                       1.213298E+03
 MPI breakdown and total messages size (bytes):
             size <=      128                 568                        0
       128 < size <=     8192                 504                  1300656
      8192 < size <=    32768                   0                        0
     32768 < size <=   131072                   0                        0
    131072 < size <=  4194304                   0                        0
   4194304 < size <= 16777216                   0                        0
  16777216 < size                               0                        0
 -------------------------------------------------------------------------------
 -                                                                             -
 -                      DBCSR MESSAGE PASSING PERFORMANCE                      -
 -                                                                             -
 -------------------------------------------------------------------------------
 ROUTINE             CALLS      AVE VOLUME [Bytes]
 MP_Bcast               13                     12.
 MP_Allreduce          710                      9.
 MP_Alltoall           590                    470.
 MP_ISend             1068                    516.
 MP_IRecv             1068                    396.
 -------------------------------------------------------------------------------

 -------------------------------------------------------------------------------
 -                                                                             -
 -                                GRID STATISTICS                              -
 -                                                                             -
 -------------------------------------------------------------------------------
 LP    KERNEL             BACKEND                              COUNT     PERCENT
 2     collocate ortho    REF                                   6730      36.64%
 3     collocate ortho    REF                                   3800      20.69%
 2     integrate ortho    REF                                   3365      18.32%
 3     integrate ortho    REF                                   2573      14.01%
 4     collocate ortho    REF                                    940       5.12%
 4     integrate ortho    REF                                    850       4.63%
 5     integrate ortho    REF                                     94       0.51%
 0     collocate general  REF                                      8       0.04%
 1     integrate general  REF                                      8       0.04%
 -------------------------------------------------------------------------------

 MEMORY| Estimated peak process memory [MiB]                                 330

 -------------------------------------------------------------------------------
 -                                                                             -
 -                         MESSAGE PASSING PERFORMANCE                         -
 -                                                                             -
 -------------------------------------------------------------------------------

 ROUTINE             CALLS      AVE VOLUME [Bytes]
 MP_Group                4
 MP_Bcast              115                3195848.
 MP_Allreduce          469                    619.
 MP_Sync                 7
 MP_Alltoall           135               20965983.
 MP_ISendRecv          198                1325708.
 MP_Wait               198
 MP_Recv                 1                   1792.
 -------------------------------------------------------------------------------


 -------------------------------------------------------------------------------
 -                                                                             -
 -                           R E F E R E N C E S                               -
 -                                                                             -
 -------------------------------------------------------------------------------
 
 CP2K version 8.2, the CP2K developers group (2021).
 CP2K is freely available from https://www.cp2k.org/ .

 Kuehne,Thomas D.; Iannuzzi,Marcella; Del Ben,Mauro;
 Rybkin,Vladimir V.; Seewald,Patrick; Stein,Frederick; Laino,Teodoro;
 Khaliullin,Rustam Z.; Schuett,Ole; Schiffmann,Florian; Golze,Dorothea;
 Wilhelm,Jan; Chulkov,Sergey; Bani-Hashemian,Mohammad Hossein;
 Weber,Valery; Borstnik,Urban; Taillefumier,Mathieu;
 Jakobovits,Alice Shoshana; Lazzaro,Alfio; Pabst,Hans; Mueller,Tiziano;
 Schade,Robert; Guidon,Manuel; Andermatt,Samuel; Holmberg,Nico;
 Schenter,Gregory K.; Hehn,Anna; Bussy,Augustin; Belleflamme,Fabian;
 Tabacchi,Gloria; Gloess,Andreas; Lass,Michael; Bethune,Iain;
 Mundy,Christopher J.; Plessl,Christian; Watkins,Matt;
 VandeVondele,Joost; Krack,Matthias; Hutter,Juerg. 
 The Journal of Chemical Physics, 152 (19), (2020). 
 CP2K: An electronic structure and molecular dynamics software package -
 Quickstep: Efficient and accurate electronic structure calculations.
 https://doi.org/10.1063/5.0007045

 Schuett, Ole; Messmer, Peter; Hutter, Juerg; VandeVondele, Joost. 
 Electronic Structure Calculations on Graphics Processing Units, John
 Wiley & Sons, Ltd, 173-190 (2016). 
 GPU-Accelerated Sparse Matrix-Matrix Multiplication for
 Linear Scaling Density Functional Theory.
 https://doi.org/10.1002/9781118670712.ch8

 Heinecke, A; Henry, G; Hutchinson, M; Pabst, H. 
 Proceedings of Intl. Supercomputing Conference, 981-991 (2016). 
 LIBXSMM: Accelerating Small Matrix Multiplications
 by Runtime Code Generation.
 https://doi.org/10.1109/SC.2016.83

 Borstnik, U; VandeVondele, J; Weber, V; Hutter, J. 
 PARALLEL COMPUTING, 40 (5-6), 47-58 (2014). 
 Sparse matrix multiplication: The distributed block-compressed sparse
 row library.
 https://doi.org/10.1016/j.parco.2014.03.012

 Hutter, J; Iannuzzi, M; Schiffmann, F; VandeVondele, J. 
 WIREs Comput Mol Sci., 4 (1), 15-25 (2014). 
 CP2K: atomistic simulations of condensed matter systems.
 https://doi.org/10.1002/wcms.1159

 Marek, A; Blum, V; Johanni, R; Havu, V; Lang, B; Auckenthaler, T;
 Heinecke, A; Bungartz, H; Lederer, H. 
 Journal of Physics: Condensed Matter, 26 (21), (2014). 
 The ELPA library: scalable parallel eigenvalue solutions for
 electronic structure
 theory and computational science.
 https://doi.org/10.1088/0953-8984/26/21/213201

 VandeVondele, J; Hutter, J. 
 JOURNAL OF CHEMICAL PHYSICS, 127 (11), 114105 (2007). 
 Gaussian basis sets for accurate calculations on molecular systems in
 gas and condensed phases.
 https://doi.org/10.1063/1.2770708

 Krack, M. 
 THEORETICAL CHEMISTRY ACCOUNTS, 114 (1-3), 145-152 (2005). 
 Pseudopotentials for H to Kr optimized for gradient-corrected
 exchange-correlation functionals.
 https://doi.org/10.1007/s00214-005-0655-y

 VandeVondele, J; Krack, M; Mohamed, F; Parrinello, M; Chassaing, T;
 Hutter, J. COMPUTER PHYSICS COMMUNICATIONS, 167 (2), 103-128 (2005). 
 QUICKSTEP: Fast and accurate density functional calculations using a
 mixed Gaussian and plane waves approach.
 https://doi.org/10.1016/j.cpc.2004.12.014

 Frigo, M; Johnson, SG. 
 PROCEEDINGS OF THE IEEE, 93 (2), 216-231 (2005). 
 The design and implementation of FFTW3.
 https://doi.org/10.1109/JPROC.2004.840301

 VandeVondele, J; Hutter, J. 
 JOURNAL OF CHEMICAL PHYSICS, 118 (10), 4365-4369 (2003). 
 An efficient orbital transformation method for electronic structure
 calculations.
 https://doi.org/10.1063/1.1543154

 Hartwigsen, C; Goedecker, S; Hutter, J. 
 PHYSICAL REVIEW B, 58 (7), 3641-3662 (1998). 
 Relativistic separable dual-space Gaussian pseudopotentials from H to Rn.
 https://doi.org/10.1103/PhysRevB.58.3641

 Lippert, G; Hutter, J; Parrinello, M. 
 MOLECULAR PHYSICS, 92 (3), 477-487 (1997). 
 A hybrid Gaussian and plane wave density functional scheme.
 https://doi.org/10.1080/002689797170220

 Perdew, JP; Burke, K; Ernzerhof, M. 
 PHYSICAL REVIEW LETTERS, 77 (18), 3865-3868 (1996). 
 Generalized gradient approximation made simple.
 https://doi.org/10.1103/PhysRevLett.77.3865

 Goedecker, S; Teter, M; Hutter, J. 
 PHYSICAL REVIEW B, 54 (3), 1703-1710 (1996). 
 Separable dual-space Gaussian pseudopotentials.
 https://doi.org/10.1103/PhysRevB.54.1703


 -------------------------------------------------------------------------------
 -                                                                             -
 -                                T I M I N G                                  -
 -                                                                             -
 -------------------------------------------------------------------------------
 SUBROUTINE                       CALLS  ASD         SELF TIME        TOTAL TIME
                                MAXIMUM       AVERAGE  MAXIMUM  AVERAGE  MAXIMUM
 CP2K                                 1  1.0    0.007    0.007    7.735    7.736
 qs_forces                            1  2.0    0.000    0.000    7.516    7.516
 qs_energies                          1  3.0    0.000    0.000    6.767    6.767
 scf_env_do_scf                       1  4.0    0.000    0.000    6.527    6.527
 rebuild_ks_matrix                   10  6.7    0.000    0.000    5.893    5.893
 qs_ks_build_kohn_sham_matrix        10  7.7    0.001    0.001    5.893    5.893
 scf_env_do_scf_inner_loop            9  5.0    0.000    0.000    5.789    5.789
 qs_ks_update_qs_env                 10  6.0    0.000    0.000    5.148    5.148
 qs_vxc_create                       10  8.7    0.000    0.000    4.763    4.765
 pw_transfer                        155 10.2    0.007    0.009    4.090    4.262
 fft_wrap_pw1pw2                    135 11.3    0.001    0.001    4.012    4.185
 fft_wrap_pw1pw2_200                 87 12.5    0.397    0.401    3.876    4.050
 xc_rho_set_and_dset_create          10 10.7    0.032    0.033    3.365    3.546
 xc_vxc_pw_create                     6  9.5    0.055    0.057    3.346    3.349
 fft3d_ps                           135 13.3    1.693    1.725    2.766    2.942
 xc_functional_eval                  10 11.7    0.000    0.000    1.675    1.857
 pbe_lda_eval                        10 12.7    1.675    1.857    1.675    1.857
 qs_rho_update_rho                   10  6.0    0.000    0.000    1.468    1.468
 calculate_rho_elec                  10  7.0    0.028    0.029    1.468    1.468
 xc_exc_calc                          4 10.0    0.011    0.012    1.416    1.416
 density_rs2pw                       10  8.0    0.001    0.001    1.247    1.261
 qs_ks_update_qs_env_forces           1  3.0    0.000    0.000    0.745    0.745
 init_scf_loop                        1  5.0    0.000    0.000    0.737    0.737
 x_to_yz                             70 14.9    0.470    0.478    0.634    0.641
 yz_to_x                             65 13.6    0.213    0.216    0.436    0.588
 sum_up_and_integrate                 6  8.5    0.011    0.011    0.524    0.531
 integrate_v_rspace                   6  9.5    0.000    0.000    0.513    0.521
 mp_alltoall_z22v                   135 15.3    0.387    0.520    0.387    0.520
 potential_pw2rs                      6 10.5    0.001    0.001    0.457    0.458
 pw_scatter_p                        70 13.9    0.455    0.458    0.455    0.458
 rs_pw_transfer                      66  9.8    0.001    0.001    0.373    0.389
 pw_gather_p                         65 12.6    0.375    0.379    0.375    0.379
 pw_derive                           48 11.2    0.315    0.317    0.315    0.317
 pw_copy                             94 11.1    0.246    0.249    0.246    0.249
 pw_poisson_solve                    10  8.7    0.082    0.084    0.234    0.234
 rs_pw_transfer_RS2PW_200            11  9.8    0.142    0.143    0.199    0.215
 grid_collocate_task_list            10  8.0    0.189    0.202    0.189    0.202
 mp_sum_d                           514  3.4    0.079    0.176    0.079    0.176
 init_scf_run                         1  4.0    0.000    0.000    0.158    0.158
 scf_env_initial_rho_setup            1  5.0    0.000    0.000    0.158    0.158
 -------------------------------------------------------------------------------

 The number of warnings for this run is : 0
 
 -------------------------------------------------------------------------------
  **** **** ******  **  PROGRAM ENDED AT                 2023-04-15 13:52:55.039
 ***** ** ***  *** **   PROGRAM RAN ON                                lujunbo-PC
 **    ****   ******    PROGRAM RAN BY                                   lujunbo
 ***** **    ** ** **   PROGRAM PROCESS ID                                  3192
  **** **  *******  **  PROGRAM STOPPED IN /home/lujunbo/code/github/CP2K_kit/ex
                                           ample/deepff/active_learning/c2h6/mod
                                           el_devi/cp2k_md/sys_4/data/task_823
