 DBCSR| CPU Multiplication driver                                           XSMM
 DBCSR| Multrec recursion limit                                              512
 DBCSR| Multiplication stack size                                           1000
 DBCSR| Maximum elements for images                                    UNLIMITED
 DBCSR| Multiplicative factor virtual images                                   1
 DBCSR| Use multiplication densification                                       T
 DBCSR| Multiplication size stacks                                             3
 DBCSR| Use memory pool for CPU allocation                                     F
 DBCSR| Number of 3D layers                                               SINGLE
 DBCSR| Use MPI memory allocation                                              F
 DBCSR| Use RMA algorithm                                                      F
 DBCSR| Use Communication thread                                               T
 DBCSR| Communication thread load                                             87
 DBCSR| MPI: My node id                                                        0
 DBCSR| MPI: Number of nodes                                                   4
 DBCSR| OMP: Current number of threads                                         1
 DBCSR| OMP: Max number of threads                                             1
 DBCSR| Split modifier for TAS multiplication algorithm                  1.0E+00


  **** **** ******  **  PROGRAM STARTED AT               2023-04-15 18:22:33.906
 ***** ** ***  *** **   PROGRAM STARTED ON                            lujunbo-PC
 **    ****   ******    PROGRAM STARTED BY                               lujunbo
 ***** **    ** ** **   PROGRAM PROCESS ID                                  3808
  **** **  *******  **  PROGRAM STARTED IN /home/lujunbo/code/github/CP2K_kit/ex
                                           ample/deepff/active_learning/c2h6/mod
                                           el_devi/cp2k_md/sys_4/data/task_2793

 CP2K| version string:                                          CP2K version 8.2
 CP2K| source code revision number:                                  git:310b7ab
 CP2K| cp2kflags: omp libint fftw3 libxc elpa parallel mpi3 scalapack xsmm plume
 CP2K|            d2 spglib mkl libvori libbqb
 CP2K| is freely available from                            https://www.cp2k.org/
 CP2K| Program compiled at            2021年 06月 10日 星期四 16:30:34 CST
 CP2K| Program compiled on                                            lujunbo-PC
 CP2K| Program compiled for                                                local
 CP2K| Data directory path                       /home/lujunbo/bin/cp2k-8.2/data
 CP2K| Input file name                                                  cp2k.inp

 GLOBAL| Force Environment number                                              1
 GLOBAL| Basis set file name            /home/lujunbo/bin/cp2k-8.2/data/BASIS_MO
 GLOBAL| Potential file name            /home/lujunbo/bin/cp2k-8.2/data/POTENTIA
 GLOBAL| MM Potential file name                                     MM_POTENTIAL
 GLOBAL| Coordinate file name                                      __STD_INPUT__
 GLOBAL| Method name                                                        CP2K
 GLOBAL| Project name                                                       test
 GLOBAL| Run type                                                   ENERGY_FORCE
 GLOBAL| FFT library                                                       FFTW3
 GLOBAL| Diagonalization library                                            ELPA
 GLOBAL| Minimum number of eigenvectors for ELPA usage                        16
 GLOBAL| Orthonormality check for eigenvectors                          DISABLED
 GLOBAL| Matrix multiplication library                                    SCALAP
 GLOBAL| All-to-all communication in single precision                          F
 GLOBAL| FFTs using library dependent lengths                                  F
 GLOBAL| Grid backend                                                       AUTO
 GLOBAL| Global print level                                                  LOW
 GLOBAL| MPI I/O enabled                                                       T
 GLOBAL| Total number of message passing processes                             4
 GLOBAL| Number of threads for this process                                    1
 GLOBAL| This output is from process                                           0
 GLOBAL| CPU model name                 Intel(R) Core(TM) i5-8265U CPU @ 1.60GHz
 GLOBAL| CPUID                                                              1002

 MEMORY| system memory details [Kb]
 MEMORY|                        rank 0           min           max       average
 MEMORY| MemTotal              7906088       7906088       7906088       7906088
 MEMORY| MemFree               5026616       5026616       5026616       5026616
 MEMORY| Buffers                170856        170856        170856        170856
 MEMORY| Cached                1318516       1318516       1318516       1318516
 MEMORY| Slab                   207580        207580        207580        207580
 MEMORY| SReclaimable           140412        140412        140412        140412
 MEMORY| MemLikelyFree         6656400       6656400       6656400       6656400


 GENERATE|  Preliminary Number of Bonds generated:                             0
 GENERATE|  Achieved consistency in connectivity generation.

 *******************************************************************************
 *******************************************************************************
 **                                                                           **
 **     #####                         ##              ##                      **
 **    ##   ##            ##          ##              ##                      **
 **   ##     ##                       ##            ######                    **
 **   ##     ##  ##   ##  ##   #####  ##  ##   ####   ##    #####    #####    **
 **   ##     ##  ##   ##  ##  ##      ## ##   ##      ##   ##   ##  ##   ##   **
 **   ##  ## ##  ##   ##  ##  ##      ####     ###    ##   ######   ######    **
 **    ##  ###   ##   ##  ##  ##      ## ##      ##   ##   ##       ##        **
 **     #######   #####   ##   #####  ##  ##  ####    ##    #####   ##        **
 **           ##                                                    ##        **
 **                                                                           **
 **                                                ... make the atoms dance   **
 **                                                                           **
 **            Copyright (C) by CP2K developers group (2000-2021)             **
 **                      J. Chem. Phys. 152, 194103 (2020)                    **
 **                                                                           **
 *******************************************************************************


 TOTAL NUMBERS AND MAXIMUM NUMBERS

  Total number of            - Atomic kinds:                                   2
                             - Atoms:                                          8
                             - Shell sets:                                     8
                             - Shells:                                        28
                             - Primitive Cartesian functions:                 40
                             - Cartesian basis functions:                     58
                             - Spherical basis functions:                     56

  Maximum angular momentum of- Orbital basis functions:                        2
                             - Local part of the GTH pseudopotential:          2
                             - Non-local part of the GTH pseudopotential:      0


 SCF PARAMETERS         Density guess:                                   RESTART
                        --------------------------------------------------------
                        max_scf:                                             100
                        max_scf_history:                                       0
                        max_diis:                                              4
                        --------------------------------------------------------
                        eps_scf:                                        1.00E-06
                        eps_scf_history:                                0.00E+00
                        eps_diis:                                       1.00E-01
                        eps_eigval:                                     1.00E-05
                        --------------------------------------------------------
                        level_shift [a.u.]:                                 0.00
                        --------------------------------------------------------
                        Outer loop SCF in use 
                        No variables optimised in outer loop
                        eps_scf                                         1.00E-06
                        max_scf                                                6
                        No outer loop optimization
                        step_size                                       5.00E-01

 Number of electrons:                                                         14
 Number of occupied orbitals:                                                  7
 Number of molecular orbitals:                                                 7

 Number of orbital functions:                                                 56
 Number of independent orbital functions:                                     56

 Extrapolation method: initial_guess


 SCF WAVEFUNCTION OPTIMIZATION

  ----------------------------------- OT ---------------------------------------
  Minimizer      : CG                  : conjugate gradient
  Preconditioner : FULL_ALL            : diagonalization, state selective
  Precond_solver : DEFAULT
  Line search    : 2PNT                : 2 energies, one gradient
  stepsize       :    0.15000000                  energy_gap     :    0.08000000
  eps_taylor     :   0.10000E-15                  max_taylor     :             4
  ----------------------------------- OT ---------------------------------------

  Step     Update method      Time    Convergence         Total energy    Change
  ------------------------------------------------------------------------------
     1 OT CG       0.15E+00    0.7     0.00018870       -14.9504385835 -1.50E+01
     2 OT LS       0.23E+00    0.5                      -14.9504399965
     3 OT CG       0.23E+00    0.9     0.00005469       -14.9504401935 -1.61E-06
     4 OT LS       0.11E+00    0.5                      -14.9504401850
     5 OT CG       0.11E+00    0.9     0.00000666       -14.9504402591 -6.55E-08
     6 OT LS       0.17E+00    0.5                      -14.9504402604
     7 OT CG       0.17E+00    0.9     0.00000097       -14.9504402605 -1.47E-09

  *** SCF run converged in     7 steps ***


  Electronic density on regular grids:        -14.0000000000        0.0000000000
  Core density on regular grids:               13.9999999989       -0.0000000011
  Total charge density on r-space grids:       -0.0000000010
  Total charge density g-space grids:          -0.0000000010

  Overlap energy of the core charge distribution:               0.00000144997391
  Self energy of the core charge distribution:                -35.13285960674677
  Core Hamiltonian energy:                                     11.36312936019293
  Hartree energy:                                              14.46404801625550
  Exchange-correlation energy:                                 -5.64475948022401

  Total energy:                                               -14.95044026054844

  outer SCF iter =    1 RMS gradient =   0.97E-06 energy =        -14.9504402605
  outer SCF loop converged in   1 iterations or    7 steps


 ENERGY| Total FORCE_EVAL ( QS ) energy [a.u.]:              -14.950440260582880

 -------------------------------------------------------------------------------
 -                                                                             -
 -                                DBCSR STATISTICS                             -
 -                                                                             -
 -------------------------------------------------------------------------------
 COUNTER                                    TOTAL       BLAS       SMM       ACC
 flops     7 x     7 x     7                 3430       0.0%    100.0%      0.0%
 flops    13 x     5 x     7                49140       0.0%    100.0%      0.0%
 flops     5 x    13 x     7                49140       0.0%    100.0%      0.0%
 flops    13 x    13 x     7                63882       0.0%    100.0%      0.0%
 flops     5 x     5 x     7                66150       0.0%    100.0%      0.0%
 flops     7 x     7 x    28               109760       0.0%    100.0%      0.0%
 flops    28 x     7 x     7               148176       0.0%    100.0%      0.0%
 flops    13 x     7 x    13               170352       0.0%    100.0%      0.0%
 flops    13 x     7 x     5               196560       0.0%    100.0%      0.0%
 flops     5 x     7 x    13               196560       0.0%    100.0%      0.0%
 flops     5 x     7 x     5               226800       0.0%    100.0%      0.0%
 flops    28 x     7 x    28               439040       0.0%    100.0%      0.0%
 flops inhomo. stacks                           0       0.0%      0.0%      0.0%
 flops total                         1.718990E+06       0.0%    100.0%      0.0%
 flops max/rank                    866.698000E+03       0.0%    100.0%      0.0%
 matmuls inhomo. stacks                         0       0.0%      0.0%      0.0%
 matmuls total                               1615       0.0%    100.0%      0.0%
 number of processed stacks                   562       0.0%    100.0%      0.0%
 average stack size                                     0.0       2.9       0.0
 marketing flops                     1.891302E+06
 -------------------------------------------------------------------------------
 # multiplications                             90
 max memory usage/rank             342.609920E+06
 # max total images/rank                        1
 # max 3D layers                                1
 # MPI messages exchanged                     720
 MPI messages size (bytes):
  total size                         1.071336E+06
  min size                           0.000000E+00
  max size                           6.272000E+03
  average size                       1.487967E+03
 MPI breakdown and total messages size (bytes):
             size <=      128                 345                        0
       128 < size <=     8192                 375                  1071336
      8192 < size <=    32768                   0                        0
     32768 < size <=   131072                   0                        0
    131072 < size <=  4194304                   0                        0
   4194304 < size <= 16777216                   0                        0
  16777216 < size                               0                        0
 -------------------------------------------------------------------------------
 -                                                                             -
 -                      DBCSR MESSAGE PASSING PERFORMANCE                      -
 -                                                                             -
 -------------------------------------------------------------------------------
 ROUTINE             CALLS      AVE VOLUME [Bytes]
 MP_Bcast               13                     12.
 MP_Allreduce          488                      9.
 MP_Alltoall           488                    549.
 MP_ISend              716                    606.
 MP_IRecv              716                    485.
 -------------------------------------------------------------------------------

 -------------------------------------------------------------------------------
 -                                                                             -
 -                                GRID STATISTICS                              -
 -                                                                             -
 -------------------------------------------------------------------------------
 LP    KERNEL             BACKEND                              COUNT     PERCENT
 2     collocate ortho    REF                                   5440      36.25%
 3     collocate ortho    REF                                   3032      20.21%
 2     integrate ortho    REF                                   2720      18.13%
 3     integrate ortho    REF                                   2196      14.64%
 4     integrate ortho    REF                                    755       5.03%
 4     collocate ortho    REF                                    752       5.01%
 5     integrate ortho    REF                                     94       0.63%
 0     collocate general  REF                                      8       0.05%
 1     integrate general  REF                                      8       0.05%
 -------------------------------------------------------------------------------

 MEMORY| Estimated peak process memory [MiB]                                 328

 -------------------------------------------------------------------------------
 -                                                                             -
 -                         MESSAGE PASSING PERFORMANCE                         -
 -                                                                             -
 -------------------------------------------------------------------------------

 ROUTINE             CALLS      AVE VOLUME [Bytes]
 MP_Group                4
 MP_Bcast              107                3434631.
 MP_Allreduce          449                    646.
 MP_Sync                 7
 MP_Alltoall           110               20994853.
 MP_ISendRecv          162                1344279.
 MP_Wait               162
 MP_Recv                 1                   1792.
 -------------------------------------------------------------------------------


 -------------------------------------------------------------------------------
 -                                                                             -
 -                           R E F E R E N C E S                               -
 -                                                                             -
 -------------------------------------------------------------------------------
 
 CP2K version 8.2, the CP2K developers group (2021).
 CP2K is freely available from https://www.cp2k.org/ .

 Kuehne,Thomas D.; Iannuzzi,Marcella; Del Ben,Mauro;
 Rybkin,Vladimir V.; Seewald,Patrick; Stein,Frederick; Laino,Teodoro;
 Khaliullin,Rustam Z.; Schuett,Ole; Schiffmann,Florian; Golze,Dorothea;
 Wilhelm,Jan; Chulkov,Sergey; Bani-Hashemian,Mohammad Hossein;
 Weber,Valery; Borstnik,Urban; Taillefumier,Mathieu;
 Jakobovits,Alice Shoshana; Lazzaro,Alfio; Pabst,Hans; Mueller,Tiziano;
 Schade,Robert; Guidon,Manuel; Andermatt,Samuel; Holmberg,Nico;
 Schenter,Gregory K.; Hehn,Anna; Bussy,Augustin; Belleflamme,Fabian;
 Tabacchi,Gloria; Gloess,Andreas; Lass,Michael; Bethune,Iain;
 Mundy,Christopher J.; Plessl,Christian; Watkins,Matt;
 VandeVondele,Joost; Krack,Matthias; Hutter,Juerg. 
 The Journal of Chemical Physics, 152 (19), (2020). 
 CP2K: An electronic structure and molecular dynamics software package -
 Quickstep: Efficient and accurate electronic structure calculations.
 https://doi.org/10.1063/5.0007045

 Schuett, Ole; Messmer, Peter; Hutter, Juerg; VandeVondele, Joost. 
 Electronic Structure Calculations on Graphics Processing Units, John
 Wiley & Sons, Ltd, 173-190 (2016). 
 GPU-Accelerated Sparse Matrix-Matrix Multiplication for
 Linear Scaling Density Functional Theory.
 https://doi.org/10.1002/9781118670712.ch8

 Heinecke, A; Henry, G; Hutchinson, M; Pabst, H. 
 Proceedings of Intl. Supercomputing Conference, 981-991 (2016). 
 LIBXSMM: Accelerating Small Matrix Multiplications
 by Runtime Code Generation.
 https://doi.org/10.1109/SC.2016.83

 Borstnik, U; VandeVondele, J; Weber, V; Hutter, J. 
 PARALLEL COMPUTING, 40 (5-6), 47-58 (2014). 
 Sparse matrix multiplication: The distributed block-compressed sparse
 row library.
 https://doi.org/10.1016/j.parco.2014.03.012

 Hutter, J; Iannuzzi, M; Schiffmann, F; VandeVondele, J. 
 WIREs Comput Mol Sci., 4 (1), 15-25 (2014). 
 CP2K: atomistic simulations of condensed matter systems.
 https://doi.org/10.1002/wcms.1159

 Marek, A; Blum, V; Johanni, R; Havu, V; Lang, B; Auckenthaler, T;
 Heinecke, A; Bungartz, H; Lederer, H. 
 Journal of Physics: Condensed Matter, 26 (21), (2014). 
 The ELPA library: scalable parallel eigenvalue solutions for
 electronic structure
 theory and computational science.
 https://doi.org/10.1088/0953-8984/26/21/213201

 VandeVondele, J; Hutter, J. 
 JOURNAL OF CHEMICAL PHYSICS, 127 (11), 114105 (2007). 
 Gaussian basis sets for accurate calculations on molecular systems in
 gas and condensed phases.
 https://doi.org/10.1063/1.2770708

 Krack, M. 
 THEORETICAL CHEMISTRY ACCOUNTS, 114 (1-3), 145-152 (2005). 
 Pseudopotentials for H to Kr optimized for gradient-corrected
 exchange-correlation functionals.
 https://doi.org/10.1007/s00214-005-0655-y

 VandeVondele, J; Krack, M; Mohamed, F; Parrinello, M; Chassaing, T;
 Hutter, J. COMPUTER PHYSICS COMMUNICATIONS, 167 (2), 103-128 (2005). 
 QUICKSTEP: Fast and accurate density functional calculations using a
 mixed Gaussian and plane waves approach.
 https://doi.org/10.1016/j.cpc.2004.12.014

 Frigo, M; Johnson, SG. 
 PROCEEDINGS OF THE IEEE, 93 (2), 216-231 (2005). 
 The design and implementation of FFTW3.
 https://doi.org/10.1109/JPROC.2004.840301

 VandeVondele, J; Hutter, J. 
 JOURNAL OF CHEMICAL PHYSICS, 118 (10), 4365-4369 (2003). 
 An efficient orbital transformation method for electronic structure
 calculations.
 https://doi.org/10.1063/1.1543154

 Hartwigsen, C; Goedecker, S; Hutter, J. 
 PHYSICAL REVIEW B, 58 (7), 3641-3662 (1998). 
 Relativistic separable dual-space Gaussian pseudopotentials from H to Rn.
 https://doi.org/10.1103/PhysRevB.58.3641

 Lippert, G; Hutter, J; Parrinello, M. 
 MOLECULAR PHYSICS, 92 (3), 477-487 (1997). 
 A hybrid Gaussian and plane wave density functional scheme.
 https://doi.org/10.1080/002689797170220

 Perdew, JP; Burke, K; Ernzerhof, M. 
 PHYSICAL REVIEW LETTERS, 77 (18), 3865-3868 (1996). 
 Generalized gradient approximation made simple.
 https://doi.org/10.1103/PhysRevLett.77.3865

 Goedecker, S; Teter, M; Hutter, J. 
 PHYSICAL REVIEW B, 54 (3), 1703-1710 (1996). 
 Separable dual-space Gaussian pseudopotentials.
 https://doi.org/10.1103/PhysRevB.54.1703


 -------------------------------------------------------------------------------
 -                                                                             -
 -                                T I M I N G                                  -
 -                                                                             -
 -------------------------------------------------------------------------------
 SUBROUTINE                       CALLS  ASD         SELF TIME        TOTAL TIME
                                MAXIMUM       AVERAGE  MAXIMUM  AVERAGE  MAXIMUM
 CP2K                                 1  1.0    0.006    0.007    6.326    6.327
 qs_forces                            1  2.0    0.000    0.000    6.109    6.109
 qs_energies                          1  3.0    0.000    0.000    5.360    5.360
 scf_env_do_scf                       1  4.0    0.000    0.000    5.119    5.119
 rebuild_ks_matrix                    8  6.6    0.000    0.000    4.794    4.794
 qs_ks_build_kohn_sham_matrix         8  7.6    0.001    0.001    4.794    4.794
 scf_env_do_scf_inner_loop            7  5.0    0.000    0.000    4.380    4.380
 qs_ks_update_qs_env                  8  6.0    0.000    0.000    4.049    4.049
 qs_vxc_create                        8  8.6    0.000    0.000    3.857    3.859
 pw_transfer                        126 10.1    0.006    0.007    3.345    3.481
 fft_wrap_pw1pw2                    110 11.2    0.001    0.001    3.282    3.419
 fft_wrap_pw1pw2_200                 71 12.4    0.321    0.326    3.171    3.313
 xc_rho_set_and_dset_create           8 10.6    0.025    0.026    2.699    2.842
 xc_vxc_pw_create                     5  9.4    0.046    0.047    2.797    2.800
 fft3d_ps                           110 13.2    1.380    1.404    2.260    2.393
 xc_functional_eval                   8 11.6    0.000    0.000    1.342    1.486
 pbe_lda_eval                         8 12.6    1.342    1.486    1.342    1.486
 qs_rho_update_rho                    8  6.0    0.000    0.000    1.179    1.179
 calculate_rho_elec                   8  7.0    0.023    0.023    1.179    1.179
 xc_exc_calc                          3 10.0    0.008    0.009    1.059    1.059
 density_rs2pw                        8  8.0    0.000    0.000    1.000    1.009
 qs_ks_update_qs_env_forces           1  3.0    0.000    0.000    0.745    0.745
 init_scf_loop                        1  5.0    0.000    0.000    0.739    0.739
 x_to_yz                             57 14.8    0.381    0.388    0.517    0.526
 yz_to_x                             53 13.6    0.176    0.179    0.360    0.485
 sum_up_and_integrate                 5  8.4    0.009    0.009    0.438    0.445
 integrate_v_rspace                   5  9.4    0.000    0.000    0.429    0.436
 mp_alltoall_z22v                   110 15.2    0.320    0.420    0.320    0.420
 potential_pw2rs                      5 10.4    0.001    0.001    0.382    0.382
 pw_scatter_p                        57 13.8    0.372    0.375    0.372    0.375
 rs_pw_transfer                      54  9.8    0.001    0.001    0.312    0.323
 pw_gather_p                         53 12.6    0.314    0.315    0.314    0.315
 pw_derive                           39 11.2    0.258    0.270    0.258    0.270
 pw_copy                             76 11.0    0.197    0.199    0.197    0.199
 pw_poisson_solve                     8  8.6    0.066    0.067    0.187    0.187
 rs_pw_transfer_RS2PW_200             9  9.8    0.120    0.122    0.165    0.176
 grid_collocate_task_list             8  8.0    0.153    0.163    0.153    0.163
 init_scf_run                         1  4.0    0.000    0.000    0.158    0.158
 scf_env_initial_rho_setup            1  5.0    0.000    0.000    0.158    0.158
 qs_init_subsys                       1  2.0    0.001    0.001    0.154    0.154
 qs_env_setup                         1  3.0    0.000    0.000    0.152    0.153
 qs_env_rebuild_pw_env                3  3.7    0.000    0.000    0.152    0.153
 pw_env_rebuild                       1  5.0    0.000    0.000    0.152    0.152
 pw_grid_setup                        4  6.0    0.000    0.000    0.147    0.147
 pw_grid_setup_internal               4  7.0    0.002    0.003    0.147    0.147
 mp_sum_d                           490  3.0    0.058    0.128    0.058    0.128
 -------------------------------------------------------------------------------

 The number of warnings for this run is : 0
 
 -------------------------------------------------------------------------------
  **** **** ******  **  PROGRAM ENDED AT                 2023-04-15 18:22:40.480
 ***** ** ***  *** **   PROGRAM RAN ON                                lujunbo-PC
 **    ****   ******    PROGRAM RAN BY                                   lujunbo
 ***** **    ** ** **   PROGRAM PROCESS ID                                  3808
  **** **  *******  **  PROGRAM STOPPED IN /home/lujunbo/code/github/CP2K_kit/ex
                                           ample/deepff/active_learning/c2h6/mod
                                           el_devi/cp2k_md/sys_4/data/task_2793
