-406.83065250598906
-406.8269194415451
-406.8272987437458
-406.830432077453
-406.83425342923186
-406.83666845315486
-406.8362439854992
-406.8326963448671
-406.82702578635434
-406.8212403087253
-406.817743809168
-406.8185606731423
-406.824625600799
-406.83537439674757
-406.84880952227957
-406.862066505766
-406.8723060297811
-406.8776050032416
-406.8775146832163
-406.8731014212524
-406.86649950414665
-406.8601704546348
-406.85612903623127
-406.85536279087324
-406.857590929733
-406.86140519022524
-406.86473806773137
-406.86552880605603
-406.86239934997104
-406.85514726310737
-406.8449011593797
-406.83387212699444
-406.82474355942685
-406.819853676469
-406.8204161629847
-406.82605985297704
-406.8348984424325
-406.8441498585137
-406.8510852756188
-406.85393595651846
-406.8524159585487
-406.84770359993803
-406.84194641670587
-406.83751032983315
-406.83623215671065
-406.8388864067936
-406.84498966712675
-406.8529651604668
-406.8606087130198
-406.86573103017633
-406.8668123615903
-406.8634956694153
-406.85677041671215
-406.8487621554237
-406.84213776987826
-406.83926190212173
-406.84136681967203
-406.8480576526956
-406.8573925614659
-406.8665467077342
-406.87280143751445
-406.87445658898554
-406.87132461312643
-406.8646732175614
-406.85670852714077
-406.84982599263896
-406.84588244814086
-406.8456842866802
-406.8488018241791
-406.8537264832855
-406.85832337855226
-406.8604667784416
-406.8587057202646
-406.85278556261227
-406.8438559320298
-406.83425035706665
-406.8268335869079
-406.8240762002378
-406.8271718216881
-406.83556117024403
-406.8470954962584
-406.8587940293686
-406.8678788845691
-406.8726656146131
-406.8729916042705
-406.8700954694753
-406.8660672404295
-406.8631086609506
-406.86284251728966
-406.86584859696023
-406.8715149812467
-406.8782166879393
-406.88376685784766
-406.88603813491426
-406.8836110590694
-406.8762802197397
-406.8652493723552
-406.8528958476299
-406.84210429443385
-406.83534347645207
-406.8338163545421
-406.83704303418045
-406.8430769653498
-406.8492703933245
-406.853257538623
-406.85375538177516
-406.850906597509
-406.84610893393096
-406.84146407860015
-406.83907073670787
-406.84038146553
-406.845780751036
-406.8544666329264
-406.8646456361027
-406.87399472472504
-406.8802906090022
-406.8820618387946
-406.87908353922575
-406.8725341101583
-406.8646985323118
-406.85824763022305
-406.855312683831
-406.8567120455727
-406.8616653201704
-406.86812816261437
-406.8735975364817
-406.876037047929
-406.8745573364131
-406.8696356433475
-406.8628649557968
-406.85638203135153
-406.852189244183
-406.8515683375473
-406.85472597646253
-406.8607339642985
-406.8677724417989
-406.8736188293896
-406.87627907958273
-406.87460774278054
-406.86873205397177
-406.8601081568926
-406.8511230232505
-406.8443239868801
-406.8415314376598
-406.8431940804248
-406.8482663449618
-406.85465858747045
-406.86005438991924
-406.8627466924014
-406.8621807364343
-406.8590515769534
-406.85498791596467
-406.85197835595807
-406.8517380685541
-406.85518976456785
-406.8621771771853
-406.87146799262905
-406.881044481344
-406.8886257633662
-406.8923080785792
-406.8911566887364
-406.8855546076711
-406.87714661931716
-406.8683341419056
-406.8614590388328
-406.8579779871781
-406.8579693611694
-406.8601817174266
-406.86258957387105
-406.86320538381455
-406.8608161753314
-406.85538745527157
-406.8480389911286
-406.8406569617436
-406.8353040934162
-406.83361489778287
-406.83633300482035
-406.8430938745037
-406.8524970892897
-406.8624549673185
-406.8707471902821
-406.8756527361125
-406.87648207922746
-406.8738212113359
-406.86935651985647
-406.8652888315829
-406.86352386313007
-406.8649540608119
-406.8691322926112
-406.87447167497675
-406.87887171492923
-406.8805008822498
-406.87843200889864
-406.87292518672484
-406.86530790132076
-406.85753960906305
-406.8516239222411
-406.84904237825464
-406.8503513356157
-406.8550313317276
-406.8616220241375
-406.8681187093796
-406.8725462926949
-406.87356646652364
-406.8709319147614
-406.8656087830343
-406.8594758786196
-406.8546674883141
-406.8527926974371
-406.85434571914226
-406.8585455921551
-406.8636648453098
-406.8676915614027
-406.86905521908756
-406.8671529338283
-406.86251869365833
-406.8566207078416
-406.85138789069754
-406.84862708899874
-406.8494972301415
-406.8541702791871
-406.86176334373846
-406.8705563405203
-406.8784577889637
-406.8836082671814
-406.88495547830587
-406.8826072311189
-406.8778079076465
-406.8725046184605
-406.86863619915096
-406.86741476176377
-406.86888824731506
-406.871954464144
-406.874803147728
-406.8755953935633
-406.8731193617178
-406.8672000503395
-406.85875342726274
-406.84950295541665
-406.8414728978097
-406.8364183424412
-406.835346208475
-406.8382459188461
-406.8440958466378
-406.8511514564255
-406.85745512315845
-406.86143923166645
-406.8624407765818
-406.86093885241326
-406.85839489279016
-406.8567188320918
-406.8575460200651
-406.8616041163258
-406.8684174849321
-406.87645337665975
-406.8836377507158
-406.88803892810415
-406.88847708580704
-406.88486774880437
-406.87821307970984
-406.87027336117615
-406.863039296412
-406.85816508993236
-406.85651515488365
-406.85793866672844
-406.8613309303587
-406.86497488840513
-406.8670848346191
-406.8664065609439
-406.86267848434665
-406.8567796223233
-406.8504726684552
-406.84580760867186
-406.844396110653
-406.84683053901375
-406.85246531183566
-406.85963305973615
-406.86620463342774
-406.8702849886005
-406.8708046607248
-406.86782115833944
-406.86245525303804
-406.85651416438924
-406.85193217007634
-406.85020152334187
-406.8519457240666
-406.85674321621286
-406.8632481328986
-406.8695850519426
-406.8739216485537
-406.87505839595093
-406.87284255119437
-406.8682460640983
-406.86305297013246
-406.859249659501
-406.85833265491306
-406.8607825747147
-406.8658891909027
-406.87198229594736
-406.8769838163287
-406.8790871528975
-406.8773332866893
-406.8718975869094
-406.8640110911214
-406.85556575786427
-406.84854362079994
-406.84444534693097
-406.84387615553027
-406.846396098386
-406.8506735755445
-406.8549059797667
-406.85739631663677
-406.85711757954743
-406.85407979045124
-406.8493623161003
-406.84478111635974
-406.8422916475329
-406.8433250488153
-406.8482819642962
-406.856359388759
-406.8657777548435
-406.8743385323967
-406.8801203528157
-406.88206904164787
-406.88028266327814
-406.8759142211846
-406.8707523250702
-406.8666353188846
-406.8648851126075
-406.86592010303474
-406.8691466738276
-406.873153109276
-406.8761527180795
-406.8765528369889
-406.873482018715
-406.867108802406
-406.8586418850792
-406.8500010244233
-406.8432517848854
-406.83997235053715
-406.84074964099585
-406.8449780641927
-406.8510500015019
-406.85689207336713
-406.8606618514102
-406.86135057425673
-406.8590786985397
-406.855002316229
-406.8508881073737
-406.84852446126456
-406.8491553653627
-406.85309905952334
-406.85964720965575
-406.8672613684719
-406.8740140883458
-406.8781491329578
-406.87860859173196
-406.8753718302758
-406.869497929255
-406.8628404845993
-406.85749480551954
-406.85512671034917
-406.8563980724623
-406.86070900057496
-406.86638546667916
-406.8712661739584
-406.8734676810368
-406.8720296247073
-406.8672066735903
-406.86033164670937
-406.8533391727745
-406.84813683238036
-406.8460287936844
-406.8473502601186
-406.85139595343054
-406.8566443409285
-406.8612072845516
-406.8633824482893
-406.8621618190802
-406.85755947337327
-406.8506610283753
-406.84335816506945
-406.83780805230504
-406.8357512472026
-406.83790719698214
-406.84368927590936
-406.85138715054785
-406.85877106568176
-406.8638804873635
-406.865681747639
-406.8643560879305
-406.8611508127667
-406.85789405910685
-406.8563684936881
-406.8577469081064
-406.8622403348072
-406.8690310472153
-406.8764874017741
-406.88259536151327
-406.8855008896782
-406.884036117212
-406.8780986558407
-406.86876592398124
-406.85806681601963
-406.8484185382317
-406.8418676179805
-406.8394013223681
-406.84061836511677
-406.84393065448984
-406.8472218169445
-406.8486816124486
-406.84746941604743
-406.84396753135724
-406.8395796440088
-406.83620242555264
-406.8355830590813
-406.83876789033235
-406.8457830640036
-406.8556063001051
-406.8664139216233
-406.87603174715144
-406.88248914731867
-406.8845472857789
-406.8820736539774
-406.87613631233614
-406.8687364132354
-406.8621988428891
-406.858388381106
-406.85804170807575
-406.8605082812443
-406.8640338806554
-406.8664731281523
-406.8661233611876
-406.8623409951583
-406.8557317799595
-406.84789990558227
-406.8408998151811
-406.83659916480815
-406.83614394284643
-406.8396512970247
-406.8461816046527
-406.8539786348529
-406.8609205690845
-406.8650889911799
-406.865329300353
-406.8616482232579
-406.8552917473923
-406.84840937888
-406.84335101936006
-406.8418205177962
-406.8442283660772
-406.84953662950414
-406.85568207564575
-406.8603915716189
-406.86203667936815
-406.8601900658791
-406.8557121333403
-406.8503996956871
-406.84637166528444
-406.84541083404156
-406.8484465795628
-406.85529172562315
-406.8646741209794
-406.87454293614877
-406.8825849368321
-406.8868436082032
-406.8862957233161
-406.881210204114
-406.8731317048015
-406.86442026597933
-406.85745115301756
-406.8537540973979
-406.85345183878826
-406.85525621204613
-406.85703075618494
-406.856669146826
-406.8529151323376
-406.84581587276915
-406.8366894494586
-406.8276832895802
-406.8211172833377
-406.81882580453976
-406.82166577503875
-406.8292906769092
-406.84022336738985
-406.85221006089165
-406.8627894169952
-406.8699609717683
-406.8727801310009
-406.8716796264459
-406.8683509041181
-406.86515128620096
-406.8642049232509
-406.866540941642
-406.8716458761665
-406.87764180391713
-406.88201843119504
-406.88259450979695
-406.87831387611794
-406.86959528070184
-406.8581681593765
-406.8465181604905
-406.83716115063436
-406.83196594778616
-406.83168840527657
-406.8358061516118
-406.8426770995063
-406.849988708551
-406.855407991703
-406.8572836043637
-406.85519905725545
-406.85016778938933
-406.84433584288
-406.84022803414217
-406.83978328039984
-406.84356557567946
-406.85049995330974
-406.85826115155965
-406.86414613305607
-406.8660575069175
-406.8632133023272
-406.85635743226055
-406.84746474113166
-406.8391029930823
-406.8336800445569
-406.8327894785495
-406.8368016746479
-406.8447779761661
-406.8547216689005
-406.8641191475267
-406.8706590009082
-406.87294830823765
-406.8709991323218
-406.8662747870965
-406.8612057008491
-406.8582892881306
-406.8590983342743
-406.86361099942343
-406.87016617553513
-406.87607210163367
-406.8786077100831
-406.87600135203564
-406.8680271621209
-406.8560493123188
-406.8425743275518
-406.83050771421557
-406.8223603047946
-406.8196105237063
-406.82236167352715
-406.82935696656136
-406.8383471533575
-406.8467387278046
-406.8523747360233
-406.8542360599864
-406.8528200312722
-406.85000820550755
-406.84839430377326
-406.85026878988276
-406.8566513587444
-406.86678225491517
-406.87831228969424
-406.88811596897415
-406.8933826778968
-406.8925497809752
-406.88575590932544
-406.87471873257306
-406.8621530978317
-406.85096236179794
-406.8434476497053
-406.8407301494816
-406.8425039725188
-406.84716486079697
-406.8522905440017
-406.8553758115204
-406.85464649201026
-406.84971460283913
-406.84182456412896
-406.83353296702717
-406.82785788870353
-406.8271718026401
-406.83226946628287
-406.84200900560984
-406.85368926899696
-406.8640035481258
-406.8701718654355
-406.87081740381586
-406.86630702442295
-406.8585126636595
-406.85014868155554
-406.843933193312
-406.8418184252408
-406.8444734590116
-406.85112324910494
-406.85977284189386
-406.8677734894372
-406.87260879724363
-406.8727057296352
-406.8680187891781
-406.8601537985467
-406.8519119465758
-406.8463459804592
-406.8456467186437
-406.8502969618285
-406.8588533692334
-406.86845605706867
-406.8758510390724
-406.87850637761073
-406.8754048866649
-406.86727525444104
-406.8562562875467
-406.84518035089917
-406.8367301059872
-406.8327059069474
-406.83357553923724
-406.8383924303791
-406.8450939874091
-406.8511164054419
-406.8541851311604
-406.85307515432265
-406.8480920887019
-406.8410718265019
-406.83482985069725
-406.8322000554849
-406.83499722247706
-406.84330913831917
-406.855412889752
-406.86835386743775
-406.8789486034155
-406.8848143437424
-406.88505598355215
-406.88041480175815
-406.8729017495599
-406.8650954266722
-406.859348289883
-406.8571222735111
-406.8586073293428
-406.86270005753175
-406.8673426815291
-406.8701486704519
-406.86916421156445
-406.86355686509637
-406.85400050192095
-406.8425844420231
-406.83221661905424
-406.8256848420116
-406.82470245391045
-406.82930603773536
-406.83785142725094
-406.8476113288565
-406.85573113504967
-406.86016772805414
-406.8602784511751
-406.85689899322205
-406.8519501350319
-406.84775658050233
-406.8463093512153
-406.84867682324506
-406.8547012630837
-406.86304314954396
-406.871557499034
-406.87791450552163
-406.88030821748873
-406.87805205634584
-406.8718588515045
-406.8636776183334
-406.8560985649236
-406.8515034465602
-406.8512579019169
-406.85524962144893
-406.8619528655847
-406.86899222745507
-406.8739796985989
-406.875304898435
-406.8726052951385
-406.8667939666948
-406.8596879314917
-406.8534023167908
-406.84970856735424
-406.8495335927137
-406.8527164783509
-406.8580729930037
-406.86374370662134
-406.8677453637508
-406.86858159134584
-406.86573830922146
-406.8599015898355
-406.8527976662358
-406.84667504772415
-406.84357838952013
-406.84466000121137
-406.8497835238322
-406.8575773294834
-406.86591952071115
-406.87266895344993
-406.8763586375057
-406.87661191290323
-406.87416631971166
-406.8705428926544
-406.8675059335054
-406.8664965000099
-406.86819982923606
-406.87235194899137
-406.8778223351222
-406.8829446359519
-406.88600774524076
-406.88577644031454
-406.88189204520154
-406.8750236878308
-406.8667050643826
-406.858885688194
-406.85332775487785
-406.851047623227
-406.8520027700117
-406.8551460576431
-406.8588303511238
-406.8614087195417
-406.861802484593
-406.8598375015842
-406.85625432016366
-406.85242140626775
-406.84987272002735
-406.84982536949826
-406.8528141617767
-406.8585336245885
-406.86591784993215
-406.8734304966808
-406.8794876826988
-406.88290297532325
-406.8832291745083
-406.88089439695636
-406.87707361661654
-406.8733166007125
-406.8710353506737
-406.87101873812384
-406.8731540018094
-406.87647176611296
-406.87950747081715
-406.8808420993977
-406.879612373423
-406.8758055280329
-406.87024991312666
-406.8643315677525
-406.85955296847004
-406.85708395716154
-406.8574307281528
-406.8603098476697
-406.864746141349
-406.8693619485275
-406.8727784466162
-406.8740207007121
-406.87281301051604
-406.8696728249824
-406.86575904973824
-406.86250662540965
-406.861146532416
-406.8622746728525
-406.8656308950048
-406.8701840996737
-406.87449980610535
-406.87724984298063
-406.87766890373433
-406.87579470062326
-406.8724250414895
-406.86883200954804
-406.86634698161896
-406.86595295261736
-406.8679986445906
-406.87210237162094
-406.877260270383
-406.882125203223
-406.8853838861699
-406.8861347897497
-406.8841656733317
-406.88004007379106
-406.87494828780723
-406.87034227944804
-406.8674554455038
-406.86687135314935
-406.86831210612695
-406.8707444528169
-406.87277234038174
-406.8731616835831
-406.8712911703356
-406.86736657040296
-406.86234224416086
-406.8576031775769
-406.85453255250377
-406.85410381266087
-406.8566091157921
-406.8615854030571
-406.86794620281165
-406.87427961702946
-406.87923692163315
-406.8819132074948
-406.88211497446383
-406.8804257271288
-406.87802538646855
-406.87629283221617
-406.8763078202464
-406.87843119527827
-406.8821370075213
-406.88618075249815
-406.889045673115
-406.8894896594963
-406.88697978213145
-406.88186366100706
-406.87524207279193
-406.8686154885667
-406.8634382180205
-406.860716434725
-406.8607547238633
-406.8631026254657
-406.8667035432662
-406.8702053245531
-406.8723570674527
-406.87239449399004
-406.87030332363094
-406.8668650618774
-406.8634365254724
-406.8614999593118
-406.8621213339833
-406.8655210698596
-406.8709442415183
-406.87690175495834
-406.88169249596035
-406.88399526476144
-406.8833017146154
-406.8800465065622
-406.87542125703345
-406.870968658293
-406.86810485334297
-406.8677126529463
-406.8699064401551
-406.8740155169435
-406.87878076632103
-406.88271538276405
-406.8845440122495
-406.8836075569643
-406.8801111417623
-406.8751130717845
-406.8702172649083
-406.8670362759046
-406.86660177813286
-406.8689554539909
-406.87310300495494
-406.8773657199377
-406.8799886905349
-406.87975889311946
-406.87640149271414
-406.87063510114973
-406.86390658035947
-406.8579275046188
-406.85417106287497
-406.8534689547487
-406.85580239622175
-406.8603242941934
-406.86560250264694
-406.87002974581986
-406.8723059726372
-406.87186868297755
-406.8691303769298
-406.86541096443705
-406.86253428850245
-406.8621876263567
-406.8652684774678
-406.87148834674423
-406.8794178174707
-406.88696814382257
-406.89211103006414
-406.8935470890781
-406.89108297853977
-406.88561949321587
-406.8788045572339
-406.8725005231472
-406.86823931023287
-406.86680858737134
-406.86805949740835
-406.8709701766883
-406.8739486204774
-406.87531283055336
-406.8738343381075
-406.8692012979595
-406.8622343673507
-406.854733949398
-406.8489456962078
-406.846790606308
-406.8491432426911
-406.8554650621383
-406.8639665188747
-406.87223766117916
-406.8780819235608
-406.8802198267506
-406.87862613763224
-406.87442884425855
-406.8694673436595
-406.86568750012555
-406.8645605270574
-406.8666698256405
-406.8715506009482
-406.8778097988377
-406.88350234142746
-406.8866887264486
-406.8860465024148
-406.88136238649935
-406.87372073057986
-406.8652603875234
-406.8585121112684
-406.85551607531966
-406.8570585471713
-406.8623593710059
-406.86935812260697
-406.8754772254078
-406.8785365441509
-406.87746162373895
-406.87255753371755
-406.86531568921885
-406.8578817622825
-406.85238619473705
-406.8503324481942
-406.8521880169496
-406.85725956854833
-406.86387517025906
-406.8698404661549
-406.8730781419135
-406.87229886774486
-406.86750255113037
-406.8601080834219
-406.8525906284217
-406.84768020086904
-406.847381670219
-406.8522059628572
-406.8609502186083
-406.87113119461
-406.87988208449644
-406.8849338180443
-406.8853079908992
-406.8815150097091
-406.8752627724916
-406.86883920968023
-406.86438995249773
-406.86329355141936
-406.86577630447675
-406.8708422396459
-406.87653193048266
-406.8804648652622
-406.88055471453055
-406.8757199863266
-406.86636307443143
-406.85440667536324
-406.8427882688939
-406.83452100693273
-406.8316469732235
-406.8345078420652
-406.84165136367074
-406.85041209591475
-406.8579061953841
-406.86202484513734
-406.86206445130654
-406.8588249523852
-406.8542246693011
-406.85061820037834
-406.85004925115896
-406.8536350122187
-406.8612194480402
-406.87136347098254
-406.88167991613756
-406.8894561731673
-406.8924353489427
-406.8895528388873
-406.881382691634
-406.87008252774115
-406.85876918537514
-406.8504864428577
-406.84713871337823
-406.8488289811401
-406.85388683452834
-406.8595666449116
-406.8631041302552
-406.8626971295869
-406.8580615560591
-406.85042875744506
-406.84206598352654
-406.8355323533886
-406.83290940728153
-406.8352043718578
-406.84205436698676
-406.8517897756257
-406.86184924735613
-406.86946895185224
-406.8724922780979
-406.87007692491727
-406.86305039049324
-406.853730347302
-406.84519624234736
-406.8402311335188
-406.8403297475739
-406.84518066110894
-406.85284009966773
-406.8605112119103
-406.8655895337014
