-1.2576876810994941 0.0012914754013219185 0.0023654817552251216 1.2513851873472 -0.000584571156501549 -0.005457829800199308 0.018378533346129083 0.32176662869050643 -0.5574055078697054 0.019327578944284673 -0.6436748068943442 -8.397737138859436e-05 0.01993522832274397 0.32188379386147503 0.5572766236105369 -0.019176629477803003 -0.32051220802791613 -0.5549623839412763 -0.018257192703629743 0.6449115897892618 -0.00013477722760976414 -0.018229923583522357 -0.3226849444637022 0.5584029930513821
-1.166926983672375 -0.08991716476041445 0.16246899079667956 1.280465881029587 0.013730117673710868 -0.009688487489090436 0.0018995310140803843 0.3621114384422636 -0.5870978515670675 -0.059973804261611294 -0.5369567171175131 0.0036185397331409907 -0.03331691009630842 0.2775520464315017 0.444931695138434 -0.029228156732984595 -0.34024690573085475 -0.6055487871781621 0.006788977323269007 0.6708724451916954 -0.009160341762522574 -0.003908565311714753 -0.3547803954399224 0.6006441405070959
-1.0286498213182078 -0.17735646998871768 0.31550699522787745 1.2562874017546777 0.026116792809044335 -0.014308646737788096 -0.0275925751692365 0.37867631561983245 -0.5761669401827281 -0.14885856311723977 -0.38985570355569166 0.007418542785058059 -0.09731679965283911 0.21271063481093683 0.2988452388832667 -0.025557814413390313 -0.336106920565979 -0.6145031424399754 0.04410074923773045 0.651046067092303 -0.01798622414167261 0.023421479656133386 -0.3629018983975545 0.6015263888451731
-0.8515237993056569 -0.25594488628854367 0.4526293363136389 1.180677346212362 0.03564066284725833 -0.01955634027677897 -0.06922897345085464 0.37095367817971303 -0.5247067989592221 -0.24306447192911992 -0.21201970225894193 0.011159065936488206 -0.16834926313036216 0.13216920855131728 0.1279167684764607 -0.008111640205913062 -0.30846902713245694 -0.581442818154551 0.0923961812889473 0.5866998139447722 -0.026681036823968572 0.06298020547017688 -0.34674340978534235 0.5611707701757344
-0.647267969839303 -0.32002795617448354 0.5640193467879703 1.0577747379749345 0.04129047177815519 -0.025631841615552476 -0.12151841371397565 0.33955877053909717 -0.43475260517110764 -0.33729424057831825 -0.016698286578297868 0.014600466946367038 -0.2415099623901904 0.042644934064673304 -0.05598907258990586 0.02242650387114031 -0.25882649643417016 -0.5079793612133043 0.1497116757143161 0.4814398584760481 -0.035292005832240216 0.11330224273801866 -0.3071543963760825 0.48166605384758937
-0.43036296074725894 -0.36369065628255387 0.6394036440462816 0.8942406934055522 0.04189169339871628 -0.0326831177409255 -0.18232372816391895 0.28635538537815114 -0.31047353114632464 -0.42540222288966956 0.1796244863653806 0.017425955052232628 -0.31084826943179056 -0.047396949767791775 -0.23838759414472843 0.0645608631282363 -0.18985989891851432 -0.3979233007644862 0.21335196564078276 0.34151358027110224 -0.043829878377693365 0.17219906330826826 -0.24627384630549218 0.3672613940657574
-0.21741639636821972 -0.3814945634992015 0.6693797603993341 0.6993911934253825 0.03618449744530416 -0.04082031985444819 -0.24876887052229477 0.2147622671457142 -0.15865251725792412 -0.5007487557847774 0.3582026263046456 0.019266474106601084 -0.3697063126241918 -0.12828526926566217 -0.40307416141629204 0.11586998803657848 -0.10558882013162209 -0.2576240686196669 0.2798582179790485 0.17606327194827903 -0.052240964684155816 0.23668641859718062 -0.16774104810920784 0.22469397585146675
-0.025773982482610435 -0.36966365288057296 0.6475512539853931 0.4854616037488346 0.023055637387598606 -0.05008048212602687 -0.31715873874608486 0.12995694397556032 0.011045963108511221 -0.556917785027008 0.5002252123328647 0.019762943842246545 -0.4115009108832009 -0.1903447524100861 -0.5340077646379388 0.17286193484038273 -0.011500117628361155 -0.09630854669113148 0.3450344077997777 -0.0027815016730165275 -0.06038812725131758 0.30291351083882373 -0.07689700065987085 0.06345964936070153
0.128383325997951 -0.3274331497919386 0.5728842328020467 0.26742056301027267 0.0019160323541566808 -0.06041035700923275 -0.3829843069495486 0.03892596189992428 0.1860492772105494 -0.5885936319676326 0.5896692581165263 0.018648931123184855 -0.4307003717570583 -0.22544566871332186 -0.6177178955641569 0.2309267515704938 0.08549113408465549 0.07389752086101006 0.40408310343364634 -0.18033218765218034 -0.06802032356670597 0.36617760209322997 0.019216085626885402 -0.10422984813016262
0.23198763501387198 -0.2581274957604614 0.45155264058583106 0.06228925749156304 -0.026863225193835563 -0.07162490220969203 -0.4410456629748073 -0.0497752510433691 0.35134958737505984 -0.5924209452773077 0.6161586603376206 0.01582395723795112 -0.4238198785879377 -0.22854207910128774 -0.6456572816963431 0.28449278568985076 0.17737618006553676 0.23847910999058003 0.4519421627144629 -0.3404317269103569 -0.07476561784729871 0.4211263035007624 0.11217039684744416 -0.2640331963043894
0.27690303828762214 -0.16939880800880794 0.29727792525060404 -0.1122791082312251 -0.061607076974722355 -0.0833760983459701 -0.48583106098841133 -0.12678369359857605 0.49081227511156117 -0.5676209583779106 0.5770463963027744 0.011399196687152868 -0.39014930810986315 -0.19875608040024556 -0.6158584737593613 0.3274507001421039 0.25575112795445987 0.38172051718704586 0.4837973081050036 -0.467218521259343 -0.08014124947949565 0.46217731301507436 0.19287383860154292 -0.4007267956539272
0.2609733110079043 -0.07228253897577416 0.12959756031816164 -0.2400885742884361 -0.09929567491041505 -0.09513695154571442 -0.5121521022324292 -0.18317715957778702 0.5892687419507853 -0.5161414104677582 0.4779558028647566 0.005688360051667195 -0.3319494004775569 -0.13958141613819083 -0.533276548041644 0.3538752848525527 0.31287824279355414 0.4886752718674827 0.495718011930367 -0.547388813920126 -0.08359550086296458 0.48416704816592787 0.25274251045497104 -0.5001634801460101
0.18814209861793857 0.020830028786444948 -0.029701131727960503 -0.3088240707677227 -0.1359419064876827 -0.10623635760449457 -0.5159567024167951 -0.2120113667424995 0.6350508795261497 -0.44229492086225375 0.3314913995873807 -0.0008508603107087841 -0.2540320318178919 -0.05813706472888699 -0.40868084266279503 0.3589561137965059 0.3429090773640425 0.5475157184298619 0.4852825264137903 -0.5724331687481942 -0.08457941576216642 0.48313987702717415 0.28507536681250706 -0.5515340389932403
0.06771156493051364 0.09869684955799843 -0.16091871843575656 -0.31223079788039537 -0.16734297963367456 -0.11594318734352334 -0.49511845124244686 -0.20972730668212264 0.6222886690633709 -0.35201733371876426 0.15475507968068275 -0.007695903109469178 -0.1629124289585616 0.036254652566108436 -0.2565261458641761 0.33990919133088254 0.3429525650028787 0.5517001373995365 0.4520405331213372 -0.5401775020497063 -0.08264600789285928 0.457085376905473 0.2862973607220524 -0.5493635394172027
-0.08702563015659312 0.1533659640657838 -0.250108986053184 -0.25137905959180806 -0.18997606135925083 -0.12358134861824127 -0.4499538823615303 -0.17694757716888382 0.5522109847440486 -0.2519677496555708 -0.0336319422242094 -0.014344081681529374 -0.06576566664205871 0.13368054412599603 -0.09250540175115377 0.2965947985678007 0.31364376819040624 0.501267892365875 0.3976482287218868 -0.45517305208207204 -0.07754335028308372 0.4064047016001488 0.25667231307878147 -0.4946010115894343
-0.2604328085595529 0.18126423311624676 -0.29093379505374833 -0.13460063910257808 -0.201703418227036 -0.12863956728101172 -0.38327558208425777 -0.11836005516648994 0.43295798545033876 -0.14872820818706398 -0.21608883810516036 -0.020362802778133203 0.03048005257227247 0.2249775736721423 0.06854356877065224 0.23163906541636128 0.25900749181217125 0.40281397606098496 0.32564432019548445 -0.3277622304275019 -0.06927770614013576 0.33394250936222264 0.20023597652549258 -0.3944166245875994
-0.4361945415293109 0.18303061183991404 -0.2843926412217966 0.023914252145435792 -0.2020410143562629 -0.13083368501067047 -0.2999495534012116 -0.041728819155781846 0.277962913858562 -0.0482187771816259 -0.37777258828596244 -0.02541895941616992 0.1197615737830293 0.30257975079551047 0.2140041619525798 0.14998632609599732 0.1856593642742374 0.26814458565992755 0.24092971068699645 -0.17219348915661897 -0.058131423728555516 0.24456657724345687 0.12397349841430187 -0.26077419449483663
-0.5987409893797672 0.16241688482005348 -0.23696557869380325 0.2064056522307844 -0.19196051076847614 -0.13011115360084796 -0.20611349263658843 0.04360208377998696 0.10349466175059009 0.04458634834921845 -0.5072881304133429 -0.029278056703100016 0.19719055625538165 0.3608536753455663 0.33408409487099816 0.058074489220196285 0.10160626361318942 0.11208993674517746 0.14910359439052603 -0.004316897631059894 -0.044631239810379586 0.14442843924525126 0.03654544433342366 -0.10825541406224383
-0.7343712781645445 0.12479101151703473 -0.15808920912454985 0.39406381266987583 -0.17338083487998981 -0.12659344739140785 -0.10827698047554392 0.1282296305932952 -0.07391478324762152 0.12573857615977058 -0.5967073959047553 -0.03179225106505823 0.259105918783315 0.39604390663034933 0.42181063860205054 -0.0371250841140657 0.015031358124831754 -0.04982128407433295 0.05582644517287471 0.1604793169058346 -0.029479533488867973 0.04012835886118958 -0.05306184593202733 0.04814926483661145
-0.8318868600870405 0.07583617892296847 -0.05792661993529945 0.5691098533642152 -0.1485962283196915 -0.1205143927880682 -0.012570730126094101 0.20387251912295487 -0.23943477360826762 0.19227460187262083 -0.6412269007140387 -0.03288868772292304 0.302996176947601 0.40606403557374976 0.47276923987448094 -0.12896174707569552 -0.06668213636318614 -0.20328878614608323 -0.03368015555065232 0.30876452401855364 -0.013470338552702946 -0.06201749188762652 -0.13662833446694253 0.1948491760211717
-0.8829300506534116 0.020703098565677328 0.05408823545542056 0.7162827703969892 -0.11982949718629132 -0.11214949892096547 0.0757337153198646 0.26398883449047905 -0.3810549202855826 0.24213661736320313 -0.638660852343564 -0.03256721241050489 0.3273703840216141 0.3902213349937674 0.48470631134255643 -0.21168356137410319 -0.13751504109789806 -0.33641815774561684 -0.11495127117128981 0.42984473947888585 0.002581109892781788 -0.1564944309679396 -0.2073552891826666 0.32070029965063684
-0.8821105732278649 -0.036315561999951916 0.16982278806198048 0.8235104888154348 -0.08899032835134876 -0.10177220775329605 0.15243590349335637 0.30394222978167923 -0.48987833217336324 0.2741250898791718 -0.589114650596243 -0.030900741613401138 0.33167471924263775 0.34904821864821467 0.45729496295060534 -0.28070231628844833 -0.192993528595814 -0.44016639711639477 -0.18440347294063997 0.5159351977099709 0.017895253369690757 -0.23883413819922686 -0.26010659727511537 0.41736889334378213
-0.8270655428693667 -0.09169568937540619 0.28229631797190446 0.8820428246596177 -0.05763353988617245 -0.08963314527882077 0.21441078705942718 0.3208546943953519 -0.5599978534832933 0.28793041232029176 -0.49487510147062674 -0.02804528987131723 0.31632050769409453 0.28425378108236987 0.392055189748747 -0.33264479132243 -0.23011877211827558 -0.5082866388940768 -0.23935674576958962 0.5619972101486362 0.03176510535790249 -0.3056667972257702 -0.29136852231812677 0.47923851080430546
-0.7185974111583425 -0.14235360527556445 0.38510557504229215 0.886312336859452 -0.027045922642128094 -0.07595919592472766 0.2595053653701417 0.3133358477338438 -0.5880012343731142 0.28423966058381905 -0.3605293306820223 -0.024261160810305594 0.282775211646353 0.19882850837624264 0.2925521553685355 -0.36527341196079127 -0.24717720854271358 -0.5370181253453695 -0.27799639990610847 0.5654510090179491 0.04357928837937673 -0.3546657242390182 -0.29907612908917697 0.5030882642558873
-0.5609010614543252 -0.18525797907562863 0.4717480388372632 0.83373214082446 0.001605067711453695 -0.06096939196915628 0.2864230208178593 0.2812493082011738 -0.5726223196654165 0.2649015915386445 -0.1932864749475767 -0.019913579634142784 0.2337276547879503 0.09718709778286577 0.16468211412089173 -0.37738376549738994 -0.24355522867354543 -0.5247570023195104 -0.29933441697035246 0.5259496907952462 0.05283750175476067 -0.38446617253981563 -0.28243433478949487 0.4877607150471059
-0.36182824171368094 -0.21713440291591554 0.5351361035438038 0.7246337288849686 0.027136877987490992 -0.04489859340129476 0.2946600125872002 0.22557827592986524 -0.5145671394299465 0.2330875066655576 -0.003258945245283272 -0.015472790826249541 0.17323274962242757 -0.014685061382513862 0.016945225610128317 -0.3687513534887699 -0.21963108292315273 -0.47188775258293875 -0.3032287280861522 0.4453118790203914 0.05916973288619518 -0.3946283806437981 -0.24183271811198184 0.43400020782698684
-0.13300193744254676 -0.23439553997122536 0.5675783757673865 0.5624048688389536 0.0482719938748168 -0.028025780340544575 0.28454292734366315 0.1484611374174963 -0.41655128253912915 0.19334365113963292 0.1964704159714973 -0.011484567596453794 0.1067277571247099 -0.1292671169979239 -0.13943956323468673 -0.3401578427174171 -0.17677375002649084 -0.38080580095827304 -0.2904668004447209 0.32763849351685814 0.062364729653700705 -0.3856789876110823 -0.17888549475313237 0.3444738970266408
0.11046983836465459 -0.23341172277394356 0.5614511335486355 0.35380314998231577 0.06365978403062036 -0.010698329392550502 0.25737722214755027 0.05334248184186338 -0.2836401461757558 0.15143256133868296 0.39029461143380706 -0.008505276099599725 0.04077758297773454 -0.2378489994549212 -0.2909726032848346 -0.29349528742942477 -0.117447951178527 -0.2561599590678179 -0.2628629484170278 0.17954637110919516 0.062410222753001114 -0.35921660768419206 -0.09658031743727431 0.22397354246182224
0.3509117902135092 -0.21116820945685594 0.5106536684534039 0.10929603721272686 0.0720246007646283 0.006660432449717352 0.21566226123779697 -0.05480113551280839 -0.12369936739545881 0.11382530796474376 0.5612516879343634 -0.0070070120133827645 -0.017514498702832115 -0.3312858604586211 -0.42297912785485114 -0.23190868672026294 -0.04535830150396875 -0.10515929678003812 -0.2233785377687003 0.010369896674983328 0.059533631400741555 -0.3180488700864486 0.0005270041567651388 0.07969117787146265
0.5697634483561308 -0.16622439035098935 0.4126037547301386 -0.15683451078281838 0.07244223533520373 0.023557527008703835 0.16328453957659872 -0.16930075127651908 0.052259908572233435 0.08688285679815796 0.6929960216886087 -0.007266960827199202 -0.061424076136257034 -0.4011067584210128 -0.5213384635589238 -0.15990038160745823 0.034444811914636574 0.062151893734175026 -0.17613176613644244 -0.16783261023491633 0.054240419051418694 -0.26628664995275814 0.10615485877655152 -0.0785735758923906
0.7497678563509464 -0.09975254965740751 0.27031718325614307 -0.4267996174567415 0.06469795949089575 0.03948971740524826 0.10557601089568254 -0.2818671082949059 0.23013180761129318 0.07577515121837965 0.772084666676899 -0.009273737696259717 -0.08573190761110996 -0.44084234013697093 -0.5747159021193409 -0.08328762668625907 0.11561480090581304 0.23296604775231294 -0.12624151993317112 -0.34074615740011854 0.04732151874330465 -0.20927558956806774 0.21236031686327778 -0.23855031926367964
0.8773271952084094 -0.0162609573575223 0.09366819858155975 -0.6805576313843293 0.04963183490914413 0.054025438831858154 0.04908381455515498 -0.3830138592092614 0.39343996019930677 0.08347242215472958 0.7903619705494407 -0.012685344762728746 -0.08769653381497716 -0.4471533905205793 -0.5766086865587313 -0.008867323419871403 0.1908669177507055 0.39238721686853084 -0.07940523520470584 -0.4928938710825569 0.03979567868120327 -0.1532447828316803 0.3099706490793999 -0.38620355950425883
0.9444481880276479 0.07644289756208411 -0.10098392295127798 -0.8978964627124397 0.02931111594752211 0.06690192968786086 0.0009273660563164939 -0.4630163976733136 0.5250378542020118 0.11010615582277361 0.7464080261598992 -0.016870828169111222 -0.06759078478850303 -0.4204418449865226 -0.5265838739583093 0.056232684614248185 0.25266258514216144 0.5247959339635482 -0.04123160380022019 -0.6093445633364855 0.03280248377619851 -0.10465214668186898 0.38943228400300783 -0.5070691392728539
0.9498194847799181 0.168253299276045 -0.29311503155657903 -1.061230758277377 0.006893060721363216 0.07810094542523804 -0.03224196271864892 -0.5132529714721408 0.6095529512475455 0.1529228652895188 0.645764604684418 -0.021029741795445638 -0.028612326104272452 -0.36472245026478795 -0.4303808710518665 0.10549820931408256 0.2942178136970409 0.6158879077483288 -0.01640860038534113 -0.6778270529804856 0.027431896648400084 -0.06925879310529603 0.44206022028146147 -0.5881826257010018
0.8988269346613726 0.2485772307772142 -0.4618525775438502 -1.1585021933860735 -0.013878753147349184 0.08786290990041455 -0.04547431482072205 -0.5277294186865165 0.636216586845332 0.20684602049549425 0.49982535436953246 -0.02435096944365945 0.023819990361410054 -0.28679145990058497 -0.29869654684535896 0.1340848963776506 0.31061908643837816 0.6550071497571494 -0.007904851521018021 -0.6907530170034792 0.02453212937226273 -0.051129132260573196 0.4614420597868196 -0.6202100041499767
0.8025715429569562 0.30840401936017753 -0.5900746902315077 -1.1853787317520679 -0.02943824671433616 0.09662361481447669 -0.036579881689139136 -0.5042849996479959 0.6010952919784557 0.26546871518910714 0.3237724491091917 -0.026164656465457597 0.08310493952237916 -0.194996536227643 -0.14524861601085712 0.13969543942109883 0.299756684668821 0.6371355968163808 -0.016434830779772164 -0.6466010256797842 0.024547823385947014 -0.05184553930267029 0.4446302538618331 -0.5991888601234958
0.6761515524690864 0.34193442872062674 -0.6674108867330477 -1.1459987695984835 -0.037168643743790315 0.10488899156269607 -0.006624092477664006 -0.44510076059777604 0.5080203805931075 0.3221222893905304 0.13414369750690347 -0.02603755655188146 0.14253298085857516 -0.09796467651132859 0.01541043643243054 0.12298882761077123 0.26275943066162866 0.5639133762001571 -0.040360606609567876 -0.5501752829644462 0.027438890048993348 -0.07020845062600355 0.3927427541556032 -0.5273299720996898
0.5365699409270555 0.34725005594729225 -0.6912452804143561 -1.0519879663787424 -0.035904195778878815 0.11309961924024166 0.04032463687636947 -0.3562865322440131 0.3678333668167785 0.37077630805716655 -0.05319394921235143 -0.02380276397024284 0.19611554202904002 -0.0035985005551175168 0.16969902544030513 0.08738238100435666 0.20377772769167832 0.4433220251523252 -0.07606000887960325 -0.41172790843892787 0.03270008702177679 -0.10253121283253619 0.3107671151316708 -0.4125845485895388
0.40064704517613253 0.3259575576933803 -0.6656991182404837 -0.9200884511222153 -0.026008065998644452 0.12153235937751161 0.09810414857330722 -0.24670496888324123 0.19617881173558374 0.40659153338232146 -0.22444590553424623 -0.019525821282278248 0.23906115118157284 0.08152991258023856 0.3061389083300846 0.03831529404635598 0.12918626608797698 0.28815693679303744 -0.11863200074764761 -0.24515132323497324 0.03947366343712168 -0.1434306506734019 0.2066395969072478 -0.2671422719465179
0.2832904452928549 0.28213360313736585 -0.5993663947966444 -0.769170958879432 -0.009057569627039599 0.13026445305561724 0.15967699902277316 -0.12645012381689658 0.010683524980559333 0.4261343753675142 -0.3686541400783173 -0.013441105109781864 0.2679303921979338 0.15239344943799024 0.4158610081895431 -0.017762923832288634 0.04648437783905381 0.11378877258885031 -0.16271744163716767 -0.06586015468316246 0.04670762158416828 -0.18683359222928955 0.08991342637642083 -0.10534306380724492
0.19632259810866365 0.2210671674505655 -0.5027876868699479 -0.6174311352865954 0.012680953318532686 0.1391978846799202 0.21827223433464488 -0.0053907445765672204 -0.17161654389208786 0.4273528674345566 -0.477775475973577 -0.005878945644452418 0.2805712311649753 0.20547719088452204 0.4926576021288375 -0.07439407287195662 -0.03681575983517834 -0.06411363516029749 -0.20322968162665758 0.11116918356618666 0.0533194241887309 -0.22693693425673928 -0.029617277769523553 0.058400278843715715
0.1479952689516527 0.14821360703193923 -0.3864432325985611 -0.48044389024523554 0.03678036602908761 0.14813157341453906 0.26817612795348567 0.10781352884667 -0.3360999271653857 0.4094089945041237 -0.5464838061768825 0.0027942594868929035 0.2759392551261575 0.23860485750389437 0.5326819804360592 -0.1258573714101422 -0.11401455144167982 -0.2313428383369673 -0.2358563173733799 0.2727531595177895 0.05831947421362568 -0.25885298393891715 -0.14297351367388722 0.2111450026797402
0.14292380396540558 0.06859460002615773 -0.25970023442079027 -0.3701528001144208 0.06101832520448381 0.15679511119800546 0.30508859212069106 0.20621721608024032 -0.47137153677503 0.37250239759432785 -0.5719109211322737 0.012212220643769601 0.25395531524182513 0.2507763467314146 0.5342188984871729 -0.16757136558510757 -0.1796883371412383 -0.3761793013691846 -0.25729972395612305 0.4082494424059048 0.06088825309565554 -0.2789506082794079 -0.24264426625538518 0.34231713742588643
0.18234449753523962 -0.013375228304634643 -0.13056249533384162 -0.29469975669983645 0.08355831242686867 0.16490512132451554 0.326149120305366 0.28466136778179885 -0.569339704844449 0.317739864624353 -0.5534598929614655 0.022021606545615975 0.21538446896805505 0.24207312654178773 0.4975001463741945 -0.19621404099107226 -0.22983985884755623 -0.48977108117617674 -0.2653311251746411 0.5097666430056566 0.06040907145765311 -0.28489454112731444 -0.3228442500154516 0.4440042416646101
0.26444245422087187 -0.09373227561449546 -0.006045475996079363 -0.2587733928695183 0.10295719834617299 0.17218526162650924 0.32975327214522765 0.3395930330597978 -0.6248351564810097 0.24706658425818215 -0.49277792975669205 0.03188909937886221 0.16181680991150146 0.21366207153503056 0.424690505539735 -0.20963297804941478 -0.2618130898639966 -0.5660117769014019 -0.2587111721730636 0.5720522341041144 0.05646637218039569 -0.2755090375767206 -0.37945384292623213 0.5108148046306026
0.38461517311010257 -0.16864452861717458 0.10719597557884114 -0.2641287179289632 0.11807629279521221 0.17837637004773688 0.315312563264766 0.36881087452690736 -0.6351303728936284 0.16326849589288478 -0.39392686543119965 0.04148839529935702 0.09571094518381867 0.16789068631307827 0.32003201851747526 -0.20668998024475718 -0.2741315742013395 -0.6012696179148616 -0.23707922659564995 0.5922562506933364 0.04884058305408023 -0.25059399381094544 -0.40987965036405 0.5396095299352011
0.5356363065212365 -0.2340935896161988 0.20228560854201208 -0.3100514022874267 0.1279546562526159 0.18323039683980316 0.283060655519097 0.37127623335545806 -0.599566267214041 0.07000242298764366 -0.26364668236645394 0.05048892243170471 0.02045592299235622 0.10842226323066252 0.19006545861609922 -0.18711196556834542 -0.2663478113547112 -0.5940660656337767 -0.20086449811939897 0.5697557607576845 0.0375024500669604 -0.21074625029076655 -0.4128918828345807 0.5292005473499903
0.7077811606904945 -0.28571004876958306 0.2718811801657304 -0.3936141421539357 0.13171401530579097 0.18650077835193896 0.23396786267170974 0.3470711945849134 -0.5194543180261486 -0.0282456610827267 -0.11156456781002164 0.05855528036877643 -0.05960302033280435 0.04031341143997602 0.04374761336100886 -0.15141629654009733 -0.23896557813493588 -0.5449586792048574 -0.15125618366195598 0.5061204022070774 0.022622653331162226 -0.15725880451057633 -0.3885606697475973 0.4802518442658558
0.8890423187673627 -0.31889989494775955 0.3084977617813651 -0.5096972283625621 0.12853217744425469 0.18793395239057545 0.16976789500952974 0.29754470805661787 -0.398269967745659 -0.12627887806207552 0.049878115738565806 0.06535103511997331 -0.13927684325794185 -0.030073823415311625 -0.1076730694810782 -0.100928752219686 -0.19346903869850496 -0.4566237044799854 -0.09019122893057535 0.4052423058618357 0.004594756749483915 -0.09209637523395561 -0.3383373885521037 0.3953549743966124
1.0655860579052239 -0.32936319465831343 0.30553572238670984 -0.6508237489443258 0.11771546417783803 0.18726087357891863 0.0930907442386031 0.22560868693803326 -0.24210984189490237 -0.21850173614484905 0.20603794334135594 0.07056726349850084 -0.21279864881428548 -0.09545974840515643 -0.251279110527594 -0.037878458477387 -0.13242871513539028 -0.33410132126216546 -0.02043176490707157 0.27355786338458277 -0.015929650146623044 -0.017902786701947462 -0.2652352744488629 0.279254342980027
1.222559593378071 -0.31401315858130086 0.2589749159351431 -0.8069328743928148 0.09888757399035424 0.18419455538232907 0.007635775290986119 0.13610322778430894 -0.060217462565810495 -0.299396586244744 0.34135363194356305 0.07395180713311522 -0.27438940442615267 -0.14838284218408973 -0.3736653024110665 0.034463462696954036 -0.059647778096601205 -0.1851365304467966 0.05442653606691307 0.12022348275000762 -0.03800868485240483 0.06196055223706096 -0.17405861366822178 0.1391551426610002
1.3452482704060273 -0.27213719004950676 0.16936652523753992 -0.9653405609234992 0.07226827963765277 0.1784329446016538 -0.08169627323905701 0.036062843128219384 0.13465570699004364 -0.36413680952937216 0.44125429256956433 0.07535276524916587 -0.31892860388563615 -0.18220803366395738 -0.4626225406647552 0.11169762239851466 0.019782098560783223 -0.02033603759424504 0.1300097441500394 -0.04298375918121031 -0.06039989776158078 0.1434330520837527 -0.07152643924310402 -0.015116183960262913
1.4204987160338662 -0.20644816799262636 0.04347291669947076 -1.1110708782534549 0.038978715794546516 0.16967289789000042 -0.16885662405899035 -0.06532821915053781 0.3264094547846563 -0.40919413255530857 0.49435791892793 0.07474690021629911 -0.34270961632315144 -0.19222107150484447 -0.5089969318528611 0.18832663183388682 0.09956980592925811 0.14699257471497543 0.2013499121114595 -0.202159171973051 -0.08159180931769522 0.22187127996363218 0.03382010583781857 -0.17127538935608852
1.4381575718946797 -0.12355305619907649 -0.10524786614166921 -1.2277532988929234 0.0012473244178706619 0.15763483863203456 -0.24700711978431417 -0.1573515184905002 0.49672460910164007 -0.4328272808501333 0.4944735362947968 0.0722534752256616 -0.34405486377594663 -0.17653611838809696 -0.5082459743265095 0.25803175302101594 0.17262191721825706 0.30166099793477763 0.26325221343534366 -0.34241831547741064 -0.09990185361786724 0.29232473615189036 0.13214365178591397 -0.31532120731358754
1.3922732329687335 -0.033387255478746485 -0.25798862019441576 -1.2992237755046623 -0.03762302452071827 0.14208621054699871 -0.309261153162595 -0.229039659553498 0.6271677795378592 -0.43527225083063087 0.44172254701913977 0.0681172181603668 -0.3235830976459229 -0.13647823346450344 -0.46125302199813634 0.31425162325711825 0.2317657950910825 0.42816122226783604 0.3108448498645887 -0.44961629137450965 -0.11363942234853373 0.3499877357380619 0.21332331840938198 -0.4329566433344896
1.2818643194645414 0.05246538599451725 -0.3937611835436153 -1.3116201334144935 -0.07363071234396465 0.12286966726375095 -0.34971490055521115 -0.27099467922302756 0.7021848564163424 -0.4185827574251378 0.34243950136744317 0.06267027955315024 -0.2840589531693718 -0.07633254067228123 -0.3740674537984167 0.3510257157944972 0.2707462746623963 0.5128081449145526 0.3402102417998033 -0.5123550548314106 -0.12132655799622973 0.3907737930718095 0.26836337111216385 -0.5115474918979043
1.1111121855968118 0.12315873639194946 -0.4935842996983327 -1.2555776435853505 -0.10276621680350123 0.09992690130484501 -0.3645491167742015 -0.27729714212208384 0.7121599499168046 -0.3861879631924946 0.2079012989339852 0.05628244574479301 -0.22988013774964963 -0.002544805916172672 -0.25672433163790015 0.36394951494863076 0.2852683332468177 0.5460444920644679 0.34897122439300665 -0.5239132742489654 -0.1219271676942389 0.41191795410004967 0.2909064179473082 -0.5422223518143496
0.8889171574655688 0.1708657354897195 -0.5443051767726554 -1.1279256833076774 -0.1218307616101783 0.07332716790497937 -0.3528086627069229 -0.2468670512264026 0.6555333105920781 -0.3422989597265503 0.052315248996633895 0.04932447495307046 -0.16636745681518464 0.07737924191063282 -0.1215247746231917 0.35099081564021306 0.27380493611377754 0.5242596378399654 0.3366763170716345 -0.48340861901379534 -0.11502869222962224 0.4124170772141555 0.27844032657759077 -0.521534972973388
0.6278654792333693 0.19215159001306792 -0.5407617389627971 -0.9323832144618106 -0.12909961991150906 0.04329832851054261 -0.31662847443051373 -0.18374990365975585 0.539247184366963 -0.29133196637340797 -0.1093186166406717 0.04213928034854287 -0.099049759177642 0.15594197288989756 0.018766116862978785 0.3129138422878976 0.2379015630879097 0.45050930749261814 0.30486718414323233 -0.39595226222933977 -0.10092588286856025 0.39318899481992886 0.23279243658258533 -0.4521421842558427
0.3427875053222589 0.18802502086447734 -0.4856944634197648 -0.6790307663465684 -0.12458601231993853 0.010257611457810996 -0.2607572252139853 -0.09621013514660665 0.3772136818811969 -0.23747380865529927 -0.263021364367084 0.035038633900305226 -0.033100217522043805 0.22647496358328514 0.1523388906289502 0.25316650079255626 0.18186418975405347 0.3338815845017602 0.2568118622738549 -0.2716737075673949 -0.08058338666317909 0.3568795160500518 0.15974224847874952 -0.34226103595495083
0.049189497179414274 0.16286804143361966 -0.3878215907178416 -0.38273432887378384 -0.10983722357451861 -0.025170081772557373 -0.1916018778732 0.005011506860572558 0.18751275941322754 -0.184405910346435 -0.39698776888453574 0.028301726558218082 0.027017239415283105 0.28362026640612814 0.26926821430480496 0.17727397357274885 0.11193745490121286 0.18774268802655616 0.19699022103941644 -0.1239458436287206 -0.0554869001474531 0.307409084712835 0.06789114105957081 -0.20409423563279275