-2.770069 1.273538 0.000000 -1.269819 1.273538 0.000000 -3.165183 1.796053 0.904908 -3.165405 1.796003 -0.904851 -3.165464 0.228710 0.000088 -0.874319 0.751201 0.904720 -0.874797 0.751125 -0.905052 -0.874779 2.318535 -0.000088
-2.769957 1.273943 -0.000088 -1.270316 1.273706 -0.000553 -3.159087 1.791952 0.906961 -3.159740 1.794129 -0.902845 -3.163667 0.228116 0.004865 -0.874524 0.750265 0.907218 -0.879753 0.748725 -0.906295 -0.878614 2.321620 -0.002550
-2.770079 1.274322 -0.000156 -1.270552 1.273871 -0.001094 -3.153087 1.787233 0.907763 -3.154240 1.791633 -0.899731 -3.161843 0.229088 0.009566 -0.874818 0.750221 0.908193 -0.884676 0.747137 -0.906172 -0.882457 2.323021 -0.005004
-2.770411 1.274651 -0.000185 -1.270532 1.274031 -0.001614 -3.147336 1.782088 0.907491 -3.149127 1.788710 -0.895814 -3.160038 0.231539 0.014129 -0.875212 0.751127 0.907565 -0.889472 0.746342 -0.904753 -0.886252 2.322717 -0.007448
-2.770916 1.274908 -0.000159 -1.270270 1.274183 -0.002105 -3.142000 1.776745 0.906394 -3.144635 1.785590 -0.891464 -3.158326 0.235280 0.018491 -0.875676 0.752979 0.905364 -0.894022 0.746267 -0.902195 -0.889910 2.320804 -0.009880
-2.771555 1.275077 -0.000062 -1.269790 1.274324 -0.002561 -3.137258 1.771461 0.904777 -3.140998 1.782520 -0.887082 -3.156808 0.240026 0.022597 -0.876146 0.755707 0.901730 -0.898187 0.746789 -0.898737 -0.893318 2.317491 -0.012300
-2.772286 1.275146 0.000118 -1.269125 1.274452 -0.002979 -3.133282 1.766502 0.902978 -3.138430 1.779746 -0.883067 -3.155604 0.245414 0.026398 -0.876524 0.759183 0.896905 -0.901816 0.747747 -0.894683 -0.896340 2.313082 -0.014709
-2.773064 1.275110 0.000388 -1.268314 1.274566 -0.003358 -3.130234 1.762129 0.901337 -3.137112 1.777489 -0.879778 -3.154846 0.251024 0.029851 -0.876680 0.763223 0.891224 -0.904755 0.748950 -0.890384 -0.898827 2.307963 -0.017111
-2.773852 1.274973 0.000749 -1.267401 1.274664 -0.003704 -3.128246 1.758579 0.900166 -3.137176 1.775922 -0.877490 -3.154669 0.256409 0.032922 -0.876465 0.767600 0.885094 -0.906853 0.750190 -0.886210 -0.900623 2.302577 -0.019513
-2.774615 1.274748 0.001199 -1.266431 1.274746 -0.004026 -3.127417 1.756042 0.899711 -3.138692 1.775152 -0.876365 -3.155199 0.261136 0.035585 -0.875714 0.772064 0.878967 -0.907980 0.751265 -0.882518 -0.901579 2.297385 -0.021925
-2.775331 1.274453 0.001729 -1.265449 1.274809 -0.004336 -3.127794 1.754651 0.900130 -3.141659 1.775204 -0.876430 -3.156540 0.264820 0.037822 -0.874267 0.776352 0.873307 -0.908034 0.751994 -0.879627 -0.901565 2.292834 -0.024357
-2.775988 1.274113 0.002330 -1.264491 1.274855 -0.004652 -3.129374 1.754462 0.901471 -3.146008 1.776027 -0.877577 -3.158762 0.267167 0.039623 -0.871978 0.780221 0.868548 -0.906953 0.752237 -0.877776 -0.900481 2.289307 -0.026821
-2.776587 1.273754 0.002988 -1.263588 1.274882 -0.004991 -3.132098 1.755460 0.903665 -3.151602 1.777494 -0.879575 -3.161886 0.268006 0.040981 -0.868739 0.783468 0.865047 -0.904724 0.751910 -0.877111 -0.898271 2.287091 -0.029327
-2.777138 1.273401 0.003693 -1.262757 1.274893 -0.005371 -3.135858 1.757553 0.906538 -3.158253 1.779422 -0.882104 -3.165881 0.267307 0.041898 -0.864493 0.785954 0.863050 -0.901385 0.750992 -0.877660 -0.894931 2.286339 -0.031883
-2.777663 1.273076 0.004434 -1.262002 1.274888 -0.005810 -3.140502 1.760588 0.909826 -3.165738 1.781593 -0.884784 -3.170660 0.265188 0.042379 -0.859249 0.787619 0.862658 -0.897027 0.749529 -0.879339 -0.890518 2.287057 -0.034492
-2.778194 1.272794 0.005206 -1.261313 1.274868 -0.006318 -3.145844 1.764363 0.913213 -3.173808 1.783774 -0.887223 -3.176083 0.261896 0.042436 -0.853085 0.788490 0.863817 -0.891788 0.747624 -0.881961 -0.885144 2.289105 -0.037151
-2.778762 1.272563 0.006004 -1.260669 1.274834 -0.006902 -3.151683 1.768650 0.916357 -3.182212 1.785739 -0.889050 -3.181972 0.257783 0.042084 -0.846151 0.788673 0.866327 -0.885844 0.745426 -0.885258 -0.878972 2.292213 -0.039851
-2.779406 1.272384 0.006826 -1.260037 1.274790 -0.007563 -3.157807 1.773207 0.918927 -3.190707 1.787288 -0.889944 -3.188117 0.253261 0.041349 -0.838653 0.788342 0.869866 -0.879399 0.743115 -0.888909 -0.872207 2.296019 -0.042576
-2.780156 1.272254 0.007673 -1.259381 1.274736 -0.008297 -3.164015 1.777802 0.920629 -3.199071 1.788258 -0.889657 -3.194299 0.248770 0.040261 -0.830839 0.787714 0.874030 -0.872670 0.740878 -0.892573 -0.865077 2.300102 -0.045305
-2.781043 1.272163 0.008548 -1.258661 1.274674 -0.009095 -3.170117 1.782224 0.921232 -3.207112 1.788535 -0.888031 -3.200301 0.244728 0.038860 -0.822980 0.787026 0.878375 -0.865872 0.738896 -0.895920 -0.857822 2.304029 -0.048013
-2.782088 1.272100 0.009452 -1.257839 1.274607 -0.009947 -3.175951 1.786294 0.920582 -3.214675 1.788056 -0.885004 -3.205922 0.241507 0.037192 -0.815348 0.786512 0.882461 -0.859214 0.737326 -0.898655 -0.850677 2.307391 -0.050676
-2.783302 1.272051 0.010388 -1.256882 1.274538 -0.010838 -3.181385 1.789877 0.918613 -3.221647 1.786816 -0.880614 -3.210991 0.239400 0.035310 -0.808198 0.786378 0.885888 -0.852880 0.736293 -0.900540 -0.843857 2.309837 -0.053267
-2.784689 1.272002 0.011359 -1.255766 1.274469 -0.011756 -3.186321 1.792884 0.915354 -3.227959 1.784862 -0.875000 -3.215373 0.238607 0.033274 -0.801751 0.786796 0.888324 -0.847027 0.735875 -0.901408 -0.837551 2.311096 -0.055763
-2.786240 1.271938 0.012367 -1.254475 1.274402 -0.012687 -3.190699 1.795277 0.910922 -3.233588 1.782298 -0.868388 -3.218976 0.239223 0.031148 -0.796189 0.787884 0.889527 -0.841778 0.736104 -0.901173 -0.831909 2.310994 -0.058144
-2.787936 1.271847 0.013412 -1.253006 1.274342 -0.013619 -3.194499 1.797069 0.905525 -3.238552 1.779270 -0.861091 -3.221753 0.241233 0.028999 -0.791640 0.789707 0.889354 -0.837216 0.736960 -0.899831 -0.827043 2.309464 -0.060395
-2.789749 1.271717 0.014494 -1.251367 1.274291 -0.014540 -3.197735 1.798320 0.899449 -3.242906 1.775967 -0.853481 -3.223703 0.244514 0.026895 -0.788177 0.792271 0.887771 -0.833386 0.738372 -0.897468 -0.823014 2.306548 -0.062506
-2.791639 1.271539 0.015611 -1.249576 1.274250 -0.015440 -3.200453 1.799134 0.893041 -3.246734 1.772600 -0.845977 -3.224872 0.248836 0.024904 -0.785815 0.795522 0.884852 -0.830293 0.740222 -0.894248 -0.819842 2.302398 -0.064475
-2.793564 1.271309 0.016757 -1.247666 1.274224 -0.016313 -3.202729 1.799647 0.886693 -3.250138 1.769393 -0.839008 -3.225346 0.253882 0.023091 -0.784514 0.799353 0.880776 -0.827904 0.742349 -0.890405 -0.817500 2.297266 -0.066306
-2.795474 1.271029 0.017926 -1.245676 1.274214 -0.017153 -3.204652 1.800018 0.880813 -3.253222 1.766560 -0.832985 -3.225249 0.259258 0.021516 -0.784177 0.803601 0.875822 -0.826155 0.744560 -0.886232 -0.815916 2.291494 -0.068010
-2.797320 1.270704 0.019106 -1.243656 1.274221 -0.017958 -3.206319 1.800410 0.875796 -3.256078 1.764289 -0.828262 -3.224727 0.264523 0.020236 -0.784659 0.808063 0.870349 -0.824956 0.746638 -0.882062 -0.814989 2.285492 -0.069603
-2.799059 1.270348 0.020284 -1.241660 1.274246 -0.018730 -3.207821 1.800971 0.871989 -3.258767 1.762720 -0.825106 -3.223944 0.269222 0.019296 -0.785777 0.812506 0.864782 -0.824203 0.748362 -0.878236 -0.814587 2.279712 -0.071111
-2.800650 1.269980 0.021444 -1.239742 1.274291 -0.019476 -3.209228 1.801820 0.869665 -3.261314 1.761931 -0.823668 -3.223059 0.272925 0.018734 -0.787321 0.816680 0.859575 -0.823790 0.749524 -0.875085 -0.814566 2.274613 -0.072559
-2.802066 1.269624 0.022569 -1.237957 1.274354 -0.020202 -3.210579 1.803027 0.868991 -3.263694 1.761932 -0.823971 -3.222216 0.275267 0.018574 -0.789077 0.820339 0.855177 -0.823620 0.749944 -0.872888 -0.814785 2.270622 -0.073983
-2.803291 1.269305 0.023641 -1.236351 1.274437 -0.020921 -3.211876 1.804603 0.870017 -3.265839 1.762659 -0.825907 -3.221521 0.275989 0.018831 -0.790841 0.823266 0.851993 -0.823618 0.749491 -0.871857 -0.815117 2.268093 -0.075416
-2.804320 1.269048 0.024646 -1.234959 1.274538 -0.021643 -3.213084 1.806497 0.872670 -3.267642 1.763990 -0.829251 -3.221039 0.274970 0.019511 -0.792443 0.825293 0.850335 -0.823742 0.748096 -0.872102 -0.815469 2.267270 -0.076886
-2.805162 1.268873 0.025568 -1.233805 1.274658 -0.022380 -3.214128 1.808601 0.876766 -3.268973 1.765749 -0.833690 -3.220778 0.272241 0.020617 -0.793767 0.826321 0.850387 -0.823985 0.745760 -0.873628 -0.815788 2.268260 -0.078415
-2.805836 1.268797 0.026398 -1.232897 1.274794 -0.023139 -3.214910 1.810762 0.882027 -3.269692 1.767736 -0.838851 -3.220698 0.267983 0.022143 -0.794757 0.826332 0.852184 -0.824375 0.742553 -0.876332 -0.816067 2.271016 -0.080012
-2.806366 1.268826 0.027130 -1.232228 1.274947 -0.023924 -3.215314 1.812794 0.888112 -3.269665 1.769735 -0.844334 -3.220709 0.262510 0.024080 -0.795424 0.825391 0.855599 -0.824974 0.738610 -0.880012 -0.816346 2.275347 -0.081678
-2.806781 1.268960 0.027760 -1.231781 1.275114 -0.024735 -3.215223 1.814505 0.894647 -3.268783 1.771540 -0.849751 -3.220691 0.256232 0.026412 -0.795839 0.823641 0.860363 -0.825866 0.734117 -0.884391 -0.816699 2.280934 -0.083403
-2.807107 1.269191 0.028292 -1.231528 1.275296 -0.025565 -3.214527 1.815708 0.901256 -3.266965 1.772967 -0.854745 -3.220506 0.249619 0.029116 -0.796120 0.821284 0.866092 -0.827142 0.729290 -0.889145 -0.817230 2.287363 -0.085170
-2.807371 1.269505 0.028728 -1.231439 1.275489 -0.026405 -3.213140 1.816241 0.907587 -3.264177 1.773867 -0.859019 -3.220016 0.243151 0.032167 -0.796410 0.818562 0.872326 -0.828896 0.724366 -0.893930 -0.818051 2.294170 -0.086955
-2.807590 1.269885 0.029078 -1.231480 1.275693 -0.027243 -3.211000 1.815980 0.913337 -3.260425 1.774135 -0.862348 -3.219093 0.237281 0.035531 -0.796864 0.815733 0.878579 -0.831209 0.719573 -0.898414 -0.819271 2.300880 -0.088732
-2.807775 1.270309 0.029350 -1.231622 1.275905 -0.028064 -3.208081 1.814849 0.918266 -3.255765 1.773714 -0.864591 -3.217635 0.232407 0.039171 -0.797626 0.813048 0.884378 -0.834140 0.715122 -0.902297 -0.820986 2.307041 -0.090475
-2.807929 1.270755 0.029557 -1.231840 1.276123 -0.028855 -3.204393 1.812821 0.922209 -3.250300 1.772601 -0.865697 -3.215574 0.228838 0.043045 -0.798816 0.810733 0.889299 -0.837722 0.711193 -0.905336 -0.823264 2.312263 -0.092158
-2.808047 1.271199 0.029711 -1.232115 1.276346 -0.029601 -3.199980 1.809928 0.925082 -3.244174 1.770842 -0.865704 -3.212875 0.226785 0.047108 -0.800523 0.808976 0.892995 -0.841957 0.707922 -0.907357 -0.826142 2.316235 -0.093761
-2.808114 1.271619 0.029827 -1.232438 1.276571 -0.030290 -3.194925 1.806254 0.926887 -3.237573 1.768531 -0.864736 -3.209546 0.226346 0.051313 -0.802791 0.807918 0.895214 -0.846812 0.705395 -0.908263 -0.829622 2.318746 -0.095269
-2.808108 1.271994 0.029918 -1.232807 1.276795 -0.030911 -3.189342 1.801935 0.927705 -3.230711 1.765808 -0.862995 -3.205635 0.227504 0.055611 -0.805622 0.807642 0.895812 -0.852222 0.703647 -0.908038 -0.833668 2.319691 -0.096674
-2.808000 1.272308 0.029997 -1.233230 1.277017 -0.031458 -3.183373 1.797156 0.927693 -3.223826 1.762844 -0.860746 -3.201226 0.230126 0.059955 -0.808974 0.808176 0.894758 -0.858093 0.702659 -0.906750 -0.838206 2.319078 -0.097973
-2.807758 1.272546 0.030076 -1.233723 1.277233 -0.031923 -3.177180 1.792135 0.927069 -3.217166 1.759833 -0.858293 -3.196442 0.233973 0.064299 -0.812758 0.809488 0.892135 -0.864298 0.702361 -0.904544 -0.843128 2.317026 -0.099175
-2.807347 1.272700 0.030163 -1.234306 1.277441 -0.032306 -3.170942 1.787120 0.926100 -3.210977 1.756976 -0.855957 -3.191433 0.238711 0.068601 -0.816845 0.811490 0.888138 -0.870692 0.702636 -0.901634 -0.848294 2.313757 -0.100293
-2.806731 1.272767 0.030265 -1.235008 1.277639 -0.032608 -3.164837 1.782367 0.925075 -3.205484 1.754463 -0.854044 -3.186374 0.243927 0.072821 -0.821067 0.814043 0.883063 -0.877112 0.703330 -0.898290 -0.853541 2.309586 -0.101348
-2.805879 1.272754 0.030383 -1.235860 1.277824 -0.032834 -3.159039 1.778128 0.924281 -3.200882 1.752456 -0.852810 -3.181452 0.249164 0.076927 -0.825227 0.816961 0.877290 -0.883387 0.704261 -0.894820 -0.858685 2.304898 -0.102367
-2.804765 1.272670 0.030515 -1.236894 1.277993 -0.032993 -3.153701 1.774630 0.923971 -3.197319 1.751070 -0.852433 -3.176853 0.253952 0.080888 -0.829109 0.820027 0.871263 -0.889347 0.705238 -0.891542 -0.863537 2.300121 -0.103383
-2.803374 1.272534 0.030656 -1.238141 1.278145 -0.033100 -3.148949 1.772058 0.924342 -3.194888 1.750365 -0.852993 -3.172754 0.257852 0.084680 -0.832491 0.823009 0.865452 -0.894836 0.706072 -0.888764 -0.867912 2.295692 -0.104430
-2.801700 1.272366 0.030798 -1.239627 1.278277 -0.033170 -3.144871 1.770539 0.925503 -3.193623 1.750336 -0.854458 -3.169302 0.260498 0.088283 -0.835161 0.825678 0.860318 -0.899718 0.706603 -0.886752 -0.871643 2.292020 -0.105541
-2.799750 1.272188 0.030934 -1.241370 1.278387 -0.033222 -3.141511 1.770133 0.927467 -3.193501 1.750915 -0.856691 -3.166601 0.261639 0.091675 -0.836935 0.827832 0.856263 -0.903889 0.706709 -0.885706 -0.874593 2.289441 -0.106745
-2.797546 1.272021 0.031058 -1.243375 1.278475 -0.033272 -3.138873 1.770830 0.930146 -3.194446 1.751982 -0.859464 -3.164706 0.261170 0.094839 -0.837680 0.829319 0.853592 -0.907281 0.706324 -0.885739 -0.876669 2.288186 -0.108064
-2.795120 1.271879 0.031165 -1.245633 1.278540 -0.033336 -3.136919 1.772554 0.933357 -3.196338 1.753376 -0.862483 -3.163617 0.259142 0.097753 -0.837324 0.830053 0.852471 -0.909869 0.705444 -0.886865 -0.877829 2.288351 -0.109509
-2.792515 1.271774 0.031255 -1.248123 1.278582 -0.033427 -3.135578 1.775170 0.936846 -3.199032 1.754911 -0.865422 -3.163277 0.255757 0.100395 -0.835870 0.830029 0.852912 -0.911665 0.704125 -0.889004 -0.878084 2.289890 -0.111079
-2.789784 1.271707 0.031332 -1.250807 1.278600 -0.033552 -3.134753 1.778502 0.940311 -3.202362 1.756397 -0.867949 -3.163583 0.251345 0.102744 -0.833396 0.829316 0.854771 -0.912723 0.702481 -0.891982 -0.877502 2.292620 -0.112760
-2.786984 1.271675 0.031404 -1.253634 1.278596 -0.033714 -3.134334 1.782350 0.943433 -3.206157 1.757651 -0.869759 -3.164395 0.246326 0.104778 -0.830047 0.828056 0.857763 -0.913123 0.700665 -0.895561 -0.876195 2.296243 -0.114528
-2.784173 1.271671 0.031479 -1.256544 1.278571 -0.033912 -3.134205 1.786502 0.945907 -3.210254 1.758512 -0.870597 -3.165554 0.241164 0.106480 -0.826025 0.826439 0.861503 -0.912970 0.698860 -0.899454 -0.874312 2.300378 -0.116348
-2.781410 1.271680 0.031571 -1.259471 1.278526 -0.034142 -3.134254 1.790757 0.947464 -3.214501 1.758854 -0.870271 -3.166891 0.236325 0.107839 -0.821566 0.824686 0.865547 -0.912381 0.697253 -0.903360 -0.872023 2.304607 -0.118181
-2.778750 1.271691 0.031693 -1.262347 1.278463 -0.034397 -3.134379 1.794932 0.947894 -3.218769 1.758588 -0.868671 -3.168247 0.232237 0.108850 -0.816923 0.823021 0.869437 -0.911478 0.696026 -0.906984 -0.869508 2.308507 -0.119985
-2.776242 1.271688 0.031857 -1.265104 1.278385 -0.034672 -3.134498 1.798876 0.947060 -3.222956 1.757668 -0.865770 -3.169480 0.229258 0.109519 -0.812345 0.821658 0.872742 -0.910379 0.695334 -0.910063 -0.866944 2.311693 -0.121718
-2.773927 1.271657 0.032077 -1.267680 1.278294 -0.034960 -3.134546 1.802476 0.944905 -3.226990 1.756095 -0.861626 -3.170475 0.227655 0.109861 -0.808059 0.820775 0.875091 -0.909189 0.695299 -0.912381 -0.864490 2.313840 -0.123347
-2.771839 1.271586 0.032362 -1.270020 1.278194 -0.035257 -3.134487 1.805664 0.941460 -3.230830 1.753912 -0.856381 -3.171150 0.227588 0.109901 -0.804260 0.820511 0.876196 -0.907999 0.695998 -0.913787 -0.862284 2.314710 -0.124842
-2.770000 1.271465 0.032723 -1.272080 1.278087 -0.035558 -3.134308 1.808414 0.936841 -3.234467 1.751205 -0.850252 -3.171461 0.229103 0.109678 -0.801097 0.820952 0.875869 -0.906875 0.697459 -0.914201 -0.860429 2.314163 -0.126183
-2.768424 1.271288 0.033165 -1.273826 1.277978 -0.035862 -3.134022 1.810750 0.931242 -3.237922 1.748093 -0.843523 -3.171403 0.232129 0.109238 -0.798671 0.822132 0.874031 -0.905861 0.699660 -0.913618 -0.858997 2.312164 -0.127359
-2.767115 1.271049 0.033693 -1.275237 1.277868 -0.036168 -3.133665 1.812735 0.924930 -3.241238 1.744724 -0.836522 -3.171011 0.236482 0.108639 -0.797025 0.824027 0.870711 -0.904976 0.702526 -0.912110 -0.858017 2.308787 -0.128369
-2.766068 1.270751 0.034306 -1.276304 1.277761 -0.036477 -3.133295 1.814468 0.918225 -3.244477 1.741261 -0.829609 -3.170358 0.241875 0.107946 -0.796149 0.826557 0.866052 -0.904212 0.705938 -0.909818 -0.857482 2.304212 -0.129225
-2.765269 1.270399 0.035001 -1.277031 1.277660 -0.036792 -3.132982 1.816078 0.911486 -3.247706 1.737874 -0.823147 -3.169550 0.247930 0.107231 -0.795974 0.829593 0.860297 -0.903539 0.709734 -0.906951 -0.857347 2.298713 -0.129945
-2.764701 1.270004 0.035770 -1.277433 1.277566 -0.037120 -3.132806 1.817706 0.905081 -3.250988 1.734722 -0.817474 -3.168721 0.254203 0.106571 -0.796381 0.832956 0.853783 -0.902906 0.713719 -0.903767 -0.857532 2.292649 -0.130557
-2.764343 1.269580 0.036602 -1.277539 1.277482 -0.037469 -3.132843 1.819496 0.899366 -3.254368 1.731941 -0.812880 -3.168017 0.260217 0.106041 -0.797207 0.836435 0.846921 -0.902248 0.717680 -0.900558 -0.857931 2.286438 -0.131098
-2.764174 1.269149 0.037483 -1.277380 1.277410 -0.037848 -3.133159 1.821573 0.894653 -3.257861 1.729630 -0.809582 -3.167593 0.265494 0.105716 -0.798254 0.839792 0.840170 -0.901495 0.721395 -0.897629 -0.858421 2.280530 -0.131605
-2.764178 1.268732 0.038397 -1.276996 1.277350 -0.038268 -3.133799 1.824032 0.891185 -3.261448 1.727843 -0.807704 -3.167584 0.269602 0.105665 -0.799309 0.842784 0.834003 -0.900577 0.724657 -0.895271 -0.858871 2.275375 -0.132120
-2.764341 1.268355 0.039329 -1.276424 1.277304 -0.038744 -3.134780 1.826921 0.889114 -3.265070 1.726585 -0.807270 -3.168102 0.272201 0.105946 -0.800164 0.845183 0.828866 -0.899435 0.727283 -0.893739 -0.859162 2.271380 -0.132677
-2.764662 1.268037 0.040262 -1.275700 1.277272 -0.039285 -3.136085 1.830232 0.888490 -3.268628 1.725811 -0.808208 -3.169210 0.273076 0.106605 -0.800635 0.846795 0.825138 -0.898032 0.729136 -0.893222 -0.859195 2.268874 -0.133305
-2.765143 1.267797 0.041183 -1.274851 1.277255 -0.039904 -3.137665 1.833900 0.889260 -3.271996 1.725436 -0.810357 -3.170919 0.272164 0.107675 -0.800588 0.847487 0.823084 -0.896357 0.730133 -0.893830 -0.858908 2.268071 -0.134020
-2.765797 1.267646 0.042081 -1.273894 1.277253 -0.040605 -3.139442 1.837809 0.891274 -3.275026 1.725340 -0.813486 -3.173182 0.269564 0.109172 -0.799955 0.847195 0.822829 -0.894430 0.730256 -0.895578 -0.858283 2.269048 -0.134824
-2.766640 1.267589 0.042950 -1.272834 1.277268 -0.041391 -3.141314 1.841798 0.894307 -3.277565 1.725384 -0.817322 -3.175897 0.265521 0.111099 -0.798739 0.845940 0.824336 -0.892304 0.729547 -0.898387 -0.857349 2.271738 -0.135702
-2.767692 1.267622 0.043784 -1.271667 1.277299 -0.042260 -3.143165 1.845682 0.898079 -3.279468 1.725422 -0.821567 -3.178921 0.260403 0.113447 -0.797016 0.843821 0.827419 -0.890057 0.728109 -0.902094 -0.856179 2.275935 -0.136626
-2.768972 1.267737 0.044585 -1.270379 1.277346 -0.043204 -3.144877 1.849265 0.902285 -3.280610 1.725317 -0.825930 -3.182080 0.254655 0.116192 -0.794924 0.841003 0.831755 -0.887792 0.726089 -0.906464 -0.854882 2.281316 -0.137555
-2.770496 1.267920 0.045352 -1.268952 1.277410 -0.044210 -3.146339 1.852358 0.906615 -3.280897 1.724943 -0.830140 -3.185191 0.248759 0.119307 -0.792642 0.837703 0.836927 -0.885619 0.723669 -0.911218 -0.853587 2.287480 -0.138440
-2.772274 1.268154 0.046090 -1.267367 1.277489 -0.045265 -3.147456 1.854798 0.910782 -3.280273 1.724205 -0.833970 -3.188075 0.243188 0.122757 -0.790370 0.834166 0.842467 -0.883655 0.721046 -0.916056 -0.852433 2.293981 -0.139228
-2.774305 1.268421 0.046803 -1.265606 1.277584 -0.046354 -3.148155 1.856455 0.914541 -3.278726 1.723036 -0.837245 -3.190574 0.238370 0.126504 -0.788306 0.830640 0.847895 -0.882006 0.718415 -0.920683 -0.851552 2.300369 -0.139865
-2.776580 1.268700 0.047496 -1.263657 1.277693 -0.047460 -3.148390 1.857246 0.917698 -3.276289 1.721405 -0.839851 -3.192561 0.234662 0.130510 -0.786630 0.827359 0.852764 -0.880763 0.715960 -0.924831 -0.851059 2.306226 -0.140303
-2.779082 1.268974 0.048174 -1.261519 1.277816 -0.048568 -3.148146 1.857138 0.920123 -3.273039 1.719316 -0.841743 -3.193944 0.232323 0.134740 -0.785484 0.824529 0.856686 -0.879995 0.713837 -0.928279 -0.851040 2.311193 -0.140501
-2.781779 1.269226 0.048842 -1.259195 1.277951 -0.049664 -3.147436 1.856153 0.921756 -3.269096 1.716810 -0.842942 -3.194675 0.231507 0.139160 -0.784970 0.822311 0.859358 -0.879744 0.712167 -0.930863 -0.851549 2.314992 -0.140427
-2.784634 1.269440 0.049503 -1.256703 1.278096 -0.050734 -3.146306 1.854366 0.922605 -3.264615 1.713960 -0.843533 -3.194750 0.232253 0.143742 -0.785138 0.820816 0.860574 -0.880020 0.711028 -0.932490 -0.852602 2.317440 -0.140061
-2.787600 1.269606 0.050159 -1.254067 1.278250 -0.051768 -3.144827 1.851905 0.922745 -3.259780 1.710866 -0.843654 -3.194209 0.234485 0.148463 -0.785985 0.820101 0.860237 -0.880807 0.710457 -0.933139 -0.854177 2.318456 -0.139395
-2.790622 1.269715 0.050812 -1.251324 1.278409 -0.052758 -3.143094 1.848944 0.922312 -3.254797 1.707649 -0.843489 -3.193130 0.238017 0.153306 -0.787457 0.820165 0.858360 -0.882056 0.710442 -0.932863 -0.856214 2.318067 -0.138433
-2.793643 1.269764 0.051458 -1.248516 1.278571 -0.053699 -3.141217 1.845693 0.921490 -3.249877 1.704441 -0.843248 -3.191630 0.242560 0.158273 -0.789449 0.820950 0.855066 -0.883693 0.710928 -0.931785 -0.858618 2.316405 -0.137177
-2.796604 1.269754 0.052093 -1.245697 1.278734 -0.054587 -3.139317 1.842388 0.920497 -3.245233 1.701375 -0.843147 -3.189854 0.247742 0.163371 -0.791811 0.822345 0.850583 -0.885620 0.711824 -0.930092 -0.861265 2.313696 -0.135644
-2.799443 1.269692 0.052708 -1.242921 1.278893 -0.055425 -3.137517 1.839276 0.919563 -3.241057 1.698573 -0.843387 -3.187968 0.253129 0.168614 -0.794355 0.824188 0.845231 -0.887724 0.713003 -0.928020 -0.864006 2.310251 -0.133857
-2.802106 1.269589 0.053293 -1.240250 1.279047 -0.056215 -3.135932 1.836598 0.918912 -3.237519 1.696135 -0.844130 -3.186146 0.258260 0.174016 -0.796864 0.826279 0.839403 -0.889881 0.714320 -0.925841 -0.866676 2.306442 -0.131849
-2.804543 1.269459 0.053838 -1.237743 1.279193 -0.056964 -3.134661 1.834572 0.918731 -3.234751 1.694127 -0.845485 -3.184556 0.262684 0.179592 -0.799108 0.828389 0.833537 -0.891964 0.715622 -0.923838 -0.869107 2.302674 -0.129658
-2.806713 1.269320 0.054331 -1.235458 1.279326 -0.057681 -3.133776 1.833371 0.919154 -3.232842 1.692580 -0.847487 -3.183346 0.266003 0.185351 -0.800858 0.830283 0.828086 -0.893853 0.716760 -0.922287 -0.871135 2.299355 -0.127327
-2.808585 1.269188 0.054761 -1.233445 1.279447 -0.058375 -3.133322 1.833117 0.920243 -3.231839 1.691481 -0.850097 -3.182631 0.267918 0.191288 -0.801906 0.831737 0.823469 -0.895446 0.717610 -0.921428 -0.872617 2.296853 -0.124902
-2.810143 1.269078 0.055120 -1.231747 1.279551 -0.059054 -3.133308 1.833867 0.921976 -3.231745 1.690777 -0.853201 -3.182477 0.268259 0.197385 -0.802085 0.832563 0.820032 -0.896660 0.718082 -0.921444 -0.873441 2.295462 -0.122426
-2.811380 1.268999 0.055406 -1.230392 1.279640 -0.059725 -3.133712 1.835610 0.924249 -3.232525 1.690381 -0.856625 -3.182896 0.267010 0.203601 -0.801288 0.832627 0.818009 -0.897444 0.718133 -0.922444 -0.873535 2.295368 -0.119940
-2.812300 1.268955 0.055619 -1.229396 1.279711 -0.060389 -3.134481 1.838274 0.926883 -3.234114 1.690181 -0.860148 -3.183848 0.264309 0.209874 -0.799478 0.831869 0.817491 -0.897776 0.717775 -0.924450 -0.872874 2.296626 -0.117479
-2.812919 1.268946 0.055765 -1.228760 1.279765 -0.061044 -3.135536 1.841733 0.929641 -3.236425 1.690048 -0.863524 -3.185244 0.260430 0.216122 -0.796695 0.830302 0.818413 -0.897668 0.717071 -0.927399 -0.871483 2.299158 -0.115077
-2.813257 1.268963 0.055856 -1.228470 1.279802 -0.061683 -3.136785 1.845826 0.932256 -3.239356 1.689847 -0.866505 -3.186958 0.255755 0.222247 -0.793052 0.828019 0.820568 -0.897161 0.716134 -0.931146 -0.869432 2.302754 -0.112759
-2.813339 1.268995 0.055904 -1.228502 1.279823 -0.062295 -3.138124 1.850363 0.934445 -3.242799 1.689451 -0.868862 -3.188840 0.250728 0.228144 -0.788723 0.825170 0.823627 -0.896320 0.715114 -0.935479 -0.866831 2.307105 -0.110548
-2.813194 1.269030 0.055928 -1.228823 1.279830 -0.062867 -3.139451 1.855154 0.935944 -3.246648 1.688743 -0.870398 -3.190732 0.245813 0.233704 -0.783928 0.821953 0.827180 -0.895228 0.714184 -0.940145 -0.863818 2.311826 -0.108461
-2.812847 1.269053 0.055943 -1.229393 1.279825 -0.063387 -3.140669 1.860014 0.936522 -3.250803 1.687630 -0.870966 -3.192480 0.241455 0.238828 -0.778909 0.818584 0.830780 -0.893980 0.713525 -0.944867 -0.860547 2.316505 -0.106514
-2.812325 1.269050 0.055967 -1.230171 1.279809 -0.063839 -3.141693 1.864781 0.936001 -3.255176 1.686041 -0.870477 -3.193947 0.238040 0.243429 -0.773915 0.815281 0.833983 -0.892673 0.713310 -0.949374 -0.857178 2.320729 -0.104720
-2.811648 1.269010 0.056016 -1.231118 1.279784 -0.064214 -3.142456 1.869324 0.934268 -3.259694 1.683937 -0.868909 -3.195019 0.235876 0.247442 -0.769180 0.812243 0.836388 -0.891400 0.713693 -0.953414 -0.853865 2.324129 -0.103089
-2.810833 1.268923 0.056103 -1.232195 1.279754 -0.064503 -3.142909 1.873551 0.931280 -3.264300 1.681306 -0.866300 -3.195613 0.235169 0.250825 -0.764912 0.809635 0.837663 -0.890245 0.714793 -0.956782 -0.850747 2.326399 -0.101630
-2.809891 1.268783 0.056238 -1.233372 1.279719 -0.064702 -3.143026 1.877414 0.927071 -3.268953 1.678164 -0.862755 -3.195684 0.236018 0.253566 -0.761282 0.807579 0.837563 -0.889278 0.716692 -0.959323 -0.847939 2.327316 -0.100352
-2.808828 1.268587 0.056429 -1.234623 1.279682 -0.064808 -3.142803 1.880911 0.921747 -3.273631 1.674553 -0.858434 -3.195220 0.238404 0.255679 -0.758413 0.806146 0.835947 -0.888551 0.719426 -0.960950 -0.845531 2.326758 -0.099257
-2.807647 1.268338 0.056677 -1.235929 1.279646 -0.064824 -3.142258 1.884081 0.915483 -3.278323 1.670541 -0.853548 -3.194247 0.242199 0.257212 -0.756380 0.805353 0.832778 -0.888097 0.722983 -0.961643 -0.843580 2.324706 -0.098351
-2.806343 1.268040 0.056982 -1.237281 1.279610 -0.064756 -3.141427 1.887006 0.908513 -3.283031 1.666207 -0.848338 -3.192828 0.247164 0.258238 -0.755206 0.805163 0.828129 -0.887927 0.727304 -0.961455 -0.842111 2.321246 -0.097632
-2.804911 1.267704 0.057338 -1.238677 1.279577 -0.064613 -3.140364 1.889799 0.901115 -3.287762 1.661646 -0.843070 -3.191057 0.252968 0.258861 -0.754857 0.805483 0.822177 -0.888032 0.732287 -0.960505 -0.841116 2.316567 -0.097099
-2.803342 1.267343 0.057736 -1.240120 1.279548 -0.064407 -3.139134 1.892596 0.893595 -3.292522 1.656952 -0.838008 -3.189054 0.259203 0.259204 -0.755251 0.806169 0.815194 -0.888386 0.737791 -0.958974 -0.840554 2.310950 -0.096747
-2.801628 1.266976 0.058162 -1.241623 1.279523 -0.064154 -3.137808 1.895542 0.886266 -3.297309 1.652216 -0.833403 -3.186960 0.265416 0.259407 -0.756258 0.807037 0.807536 -0.888944 0.743642 -0.957092 -0.840357 2.304749 -0.096566
-2.799762 1.266622 0.058602 -1.243202 1.279503 -0.063871 -3.136454 1.898777 0.879427 -3.302108 1.647518 -0.829468 -3.184917 0.271140 0.259621 -0.757712 0.807868 0.799617 -0.889652 0.749648 -0.955123 -0.840433 2.298377 -0.096547
-2.797742 1.266303 0.059040 -1.244875 1.279489 -0.063579 -3.135132 1.902416 0.873335 -3.306882 1.642917 -0.826370 -3.183063 0.275937 0.259994 -0.759422 0.808424 0.791884 -0.890448 0.755610 -0.953345 -0.840679 2.292268 -0.096671
-2.795574 1.266040 0.059460 -1.246660 1.279481 -0.063299 -3.133887 1.906538 0.868189 -3.311571 1.638452 -0.824214 -3.181513 0.279441 0.260661 -0.761188 0.808470 0.784781 -0.891275 0.761333 -0.952030 -0.840987 2.286849 -0.096920
-2.793270 1.265850 0.059851 -1.248570 1.279480 -0.063049 -3.132740 1.911168 0.864116 -3.316093 1.634139 -0.823039 -3.180342 0.281399 0.261737 -0.762823 0.807795 0.778708 -0.892080 0.766644 -0.951416 -0.841260 2.282499 -0.097268
-2.790854 1.265745 0.060202 -1.250611 1.279487 -0.062848 -3.131690 1.916278 0.861159 -3.320338 1.629969 -0.822822 -3.179579 0.281699 0.263308 -0.764175 0.806231 0.773985 -0.892829 0.771404 -0.951687 -0.841422 2.279515 -0.097685
-2.788357 1.265731 0.060511 -1.252779 1.279504 -0.062712 -3.130713 1.921778 0.859279 -3.324184 1.625914 -0.823478 -3.179198 0.280385 0.265424 -0.765145 0.803678 0.770814 -0.893509 0.775516 -0.952955 -0.841430 2.278084 -0.098132
-2.785823 1.265808 0.060777 -1.255056 1.279531 -0.062649 -3.129763 1.927527 0.858368 -3.327495 1.621931 -0.824878 -3.179123 0.277648 0.268101 -0.765698 0.800116 0.769260 -0.894129 0.778933 -0.955248 -0.841281 2.278261 -0.098568
-2.783297 1.265967 0.061007 -1.257412 1.279569 -0.062666 -3.128777 1.933345 0.858256 -3.330134 1.617970 -0.826861 -3.179233 0.273806 0.271319 -0.765870 0.795608 0.769243 -0.894725 0.781661 -0.958508 -0.841011 2.279968 -0.098944
-2.780832 1.266198 0.061208 -1.259805 1.279618 -0.062763 -3.127685 1.939027 0.858739 -3.331972 1.613979 -0.829248 -3.179377 0.269265 0.275034 -0.765761 0.790298 0.770553 -0.895356 0.783749 -0.962597 -0.840696 2.283002 -0.099211
-2.778481 1.266483 0.061394 -1.262184 1.279679 -0.062939 -3.126418 1.944361 0.859590 -3.332899 1.609910 -0.831859 -3.179390 0.264479 0.279178 -0.765524 0.784395 0.772875 -0.896096 0.785287 -0.967309 -0.840443 2.287062 -0.099319
-2.776294 1.266805 0.061576 -1.264492 1.279753 -0.063187 -3.124912 1.949146 0.860587 -3.332829 1.605724 -0.834528 -3.179110 0.259904 0.283675 -0.765339 0.778151 0.775823 -0.897031 0.786390 -0.972393 -0.840373 2.291779 -0.099220
-2.774314 1.267145 0.061770 -1.266672 1.279837 -0.063503 -3.123116 1.953208 0.861524 -3.331709 1.601396 -0.837113 -3.178390 0.255963 0.288441 -0.765401 0.771838 0.778984 -0.898247 0.787192 -0.977575 -0.840613 2.296751 -0.098869
-2.772580 1.267486 0.061989 -1.268668 1.279931 -0.063879 -3.121000 1.956411 0.862231 -3.329524 1.596917 -0.839507 -3.177112 0.253012 0.293397 -0.765892 0.765727 0.781953 -0.899825 0.787824 -0.982581 -0.841283 2.301581 -0.098231
-2.771119 1.267812 0.062244 -1.270430 1.280034 -0.064309 -3.118555 1.958668 0.862578 -3.326297 1.592297 -0.841645 -3.175195 0.251322 0.298473 -0.766965 0.760065 0.784363 -0.901831 0.788414 -0.987160 -0.842480 2.305906 -0.097278