-406.8306525562731
-406.82560424588655
-406.82494805264605
-406.8275748341823
-406.8314820980839
-406.8344300025506
-406.8346735616997
-406.83155924456827
-406.82580184566274
-406.81933066315383
-406.81472310917377
-406.81437409922586
-406.8196525254949
-406.83033651742164
-406.8445612863229
-406.85934255730996
-406.87151000128307
-406.8787038406298
-406.8800647975056
-406.87638924320134
-406.8697455153753
-406.86273426402664
-406.8576604042266
-406.8558630392472
-406.85737115271405
-406.8609522135433
-406.86452351660313
-406.86581805416864
-406.8631271027874
-406.85591359405623
-406.8451015667882
-406.83291913876576
-406.8222937758813
-406.8159544685546
-406.8155193891181
-406.82090461798765
-406.8303083839115
-406.8408113136717
-406.84937330053924
-406.85383742122747
-406.85356697418763
-406.84952134151695
-406.84380965481
-406.8389322616379
-406.8369784853573
-406.83901064820867
-406.84477934773093
-406.8528158273154
-406.860862652985
-406.8665317571287
-406.8680259802413
-406.8647298769856
-406.85748951487886
-406.8484571630917
-406.84049319894126
-406.83626696476716
-406.8373411518096
-406.8435862650767
-406.85318405256976
-406.8632508999042
-406.87084051631933
-406.8739258925178
-406.8719956857828
-406.8660935080644
-406.8583575315463
-406.85127488582293
-406.8469093563634
-406.8463153524025
-406.84927181046146
-406.8543731585679
-406.859449380192
-406.8622108954596
-406.8609651472268
-406.85521454953914
-406.845942261282
-406.8354473647659
-406.8267123704299
-406.8224585038236
-406.8242052896121
-406.83170511323596
-406.8430074058526
-406.8551458376087
-406.86516793542233
-406.87109136676725
-406.87243951446146
-406.8702226662764
-406.86644683024696
-406.86337720598976
-406.86280490654605
-406.8655142395736
-406.8710626381708
-406.87790509687085
-406.88382139367246
-406.8865471360622
-406.8844610044495
-406.87714500221705
-406.8656328338134
-406.8522187617407
-406.8398227257737
-406.8310782696629
-406.82745889013603
-406.8287922976214
-406.83337892877034
-406.8386743334798
-406.84224744100385
-406.8426278310337
-406.8397393756474
-406.8348192332587
-406.82992028678774
-406.82720920333963
-406.828286610505
-406.8337080163278
-406.8428052432296
-406.85383679997994
-406.8644277894084
-406.87220325518865
-406.87546548700163
-406.8737272756059
-406.8679177987963
-406.86014370900745
-406.85302755902063
-406.84881999751576
-406.84861113450813
-406.85196385532544
-406.85712867413383
-406.8617479612993
-406.86374906573195
-406.862070116322
-406.8569706716202
-406.84987102743656
-406.8428359658623
-406.8379069884397
-406.83648982780073
-406.8389532118767
-406.84451893260064
-406.8514629509274
-406.85757598976534
-406.86078099832474
-406.8597543700845
-406.85437082523714
-406.84580647830506
-406.83622206271235
-406.8280817106745
-406.82332775354934
-406.8227247190557
-406.8256327805188
-406.8303142646022
-406.834633750053
-406.8368574124996
-406.83624446122104
-406.8332403532001
-406.8292518205606
-406.8261312490776
-406.8255702384238
-406.8285670012253
-406.8351069626886
-406.8441234385901
-406.8537445594245
-406.8617717194759
-406.8662803235107
-406.8661841409786
-406.86159303196456
-406.85381509501536
-406.8449609240134
-406.83725205991544
-406.8322713081884
-406.8304433277475
-406.83095758072534
-406.83216131062346
-406.832252308278
-406.8299841491719
-406.8251231103995
-406.8185201472896
-406.8118176868811
-406.8069241239887
-406.8054356999453
-406.80816845861597
-406.8149130710042
-406.82446443093886
-406.83491795416563
-406.844166127818
-406.8504756000838
-406.85298696472285
-406.85197112489516
-406.8487329425487
-406.84515617292925
-406.84302497920805
-406.84336844769024
-406.84608765964566
-406.85001941656583
-406.85340769162053
-406.8545841415961
-406.85258659790367
-406.8474963338755
-406.8404055326968
-406.8330647844186
-406.8273529587027
-406.8247382723716
-406.82587582598796
-406.83043450775574
-406.83719066152065
-406.84436319366625
-406.85011541394925
-406.85309133546536
-406.8528310039012
-406.8499184527128
-406.84578607288034
-406.8422160858337
-406.84069495229863
-406.841869193131
-406.84531328370895
-406.84970668072043
-406.8533423542991
-406.8547632199332
-406.85328724728316
-406.84924115142616
-406.84385001379843
-406.8388500584254
-406.83596770237705
-406.83642090978077
-406.8405786440245
-406.8478533399725
-406.8568536133151
-406.8657588237584
-406.87282390682617
-406.8768779030474
-406.87766296776573
-406.87588853463564
-406.8729586524119
-406.8704460135681
-406.8694956668387
-406.8703848060742
-406.8724150337338
-406.8741819713515
-406.87411376534885
-406.87106664013635
-406.86475701813583
-406.8558909582617
-406.845972161367
-406.836876868157
-406.83033953521436
-406.82749838044606
-406.8286205107995
-406.8330602682794
-406.839465876469
-406.84617994186556
-406.8517291492049
-406.85526367467884
-406.85679864089576
-406.8571688860083
-406.85768506235127
-406.8595967798617
-406.86355531787234
-406.86927823237977
-406.8755589810225
-406.88062215827597
-406.88270066555117
-406.88062153265724
-406.8741958533707
-406.8642924087772
-406.85259103788354
-406.841118891864
-406.83171749298816
-406.82559092127474
-406.82304750675456
-406.82349290462713
-406.82566966331706
-406.82808712741667
-406.82950887241736
-406.8293634138091
-406.82793830248914
-406.8262612059636
-406.82569637478474
-406.8273912269416
-406.83176831145573
-406.8382658229754
-406.84543339357316
-406.85136436225616
-406.8543032596704
-406.8532067235473
-406.84806669383386
-406.8399048115516
-406.83046359406865
-406.82171179547885
-406.81531856990455
-406.81224152162406
-406.81252691090714
-406.8153658823992
-406.8193858633478
-406.8231002414169
-406.82538911964355
-406.8258646452651
-406.82499314908137
-406.82391651324974
-406.8240159081758
-406.82636238655937
-406.8312512877792
-406.83799863129093
-406.845086228471
-406.8506122567263
-406.8528880228844
-406.8509695071059
-406.84493893875924
-406.83586194057955
-406.8254645023274
-406.81563924714123
-406.80794229610854
-406.80321468722906
-406.80142870252786
-406.8017850093082
-406.8030234173576
-406.80387560364494
-406.8035192411697
-406.8018934688772
-406.7997626376852
-406.79848712906124
-406.79955849666544
-406.8040461336847
-406.8121484912865
-406.8230191247561
-406.83494555144966
-406.84582791236613
-406.8537933168511
-406.8577289297981
-406.85754617814564
-406.8541255961596
-406.8489771527462
-406.84374882872567
-406.8397415598536
-406.8375622976944
-406.8370045645038
-406.8371770936252
-406.83683518860795
-406.83482902071165
-406.83053788742427
-406.8241505232892
-406.81669639172327
-406.80979760980125
-406.8052031432452
-406.8042447485817
-406.8073941777456
-406.8140816212916
-406.82285286689233
-406.83181955148274
-406.83924460567545
-406.8440542147383
-406.84610512469845
-406.84613641696444
-406.84545074312257
-406.84545006991317
-406.84717827875704
-406.8510011953704
-406.85650357636985
-406.8626216482369
-406.867968666302
-406.87126302559335
-406.8717375835797
-406.8694084428237
-406.86511227888906
-406.86028376255086
-406.85652213549054
-406.85508347245764
-406.85646537953744
-406.86021783619384
-406.8650929202009
-406.8694784447131
-406.87195392407045
-406.8717646869036
-406.86904190457074
-406.86471616328924
-406.86017940695814
-406.85682469676414
-406.8556148750281
-406.8568012648692
-406.859860414027
-406.8636555425353
-406.8667734072263
-406.86794531014044
-406.8664386314915
-406.8623062814839
-406.8564137163482
-406.85021802933835
-406.84534528515366
-406.84309169617734
-406.8439996476265
-406.8476803805256
-406.85295456915213
-406.85826733252185
-406.8622202384977
-406.86401908126237
-406.8636822680048
-406.8619594186016
-406.86001665215053
-406.85901763985606
-406.85973264625375
-406.86228748081453
-406.8661105631745
-406.8700825046516
-406.8728443390876
-406.8731846954403
-406.87040566827545
-406.8645649456682
-406.85651327457026
-406.84769365565813
-406.8397396808994
-406.83398818336434
-406.8310725574197
-406.8307535832527
-406.83206108107595
-406.8336930706948
-406.83451160634866
-406.8339441663075
-406.8321477150957
-406.82990403895695
-406.8283100690236
-406.8283819462652
-406.83070443711154
-406.83522101658116
-406.84121287738594
-406.8474630188045
-406.8525620844243
-406.8552760206949
-406.85487738298707
-406.8513550230796
-406.845431775128
-406.83836029395354
-406.8315498552068
-406.8261248285163
-406.822580697824
-406.82066774582455
-406.8195550234063
-406.81820960440785
-406.8158357346291
-406.8122013432958
-406.8077381864197
-406.8033982954189
-406.80033488359976
-406.7995323658117
-406.8014893310807
-406.80604397375174
-406.8123817938206
-406.8192186037135
-406.82511281093286
-406.8288312630363
-406.82967391301395
-406.8276669023162
-406.8235526736552
-406.8185586041932
-406.814002470406
-406.81086301999164
-406.8094751588755
-406.80947145817976
-406.80999222010297
-406.81007586943576
-406.8090657280703
-406.80687482683237
-406.8040220992515
-406.8014474405183
-406.80018746947485
-406.8010258738565
-406.80422353034527
-406.80939955556715
-406.8155902849202
-406.8214703333453
-406.8256841613639
-406.8272043979347
-406.8256218104381
-406.82127491852003
-406.8151621263911
-406.80864312456316
-406.8030113181281
-406.79910107521357
-406.797051391394
-406.79634156912067
-406.796075082307
-406.79538763199673
-406.7938155713594
-406.79148872258367
-406.7890935966985
-406.78763987243394
-406.7881227981304
-406.791186484101
-406.796920328576
-406.80475446608176
-406.8135645359247
-406.82192609999413
-406.8284639517504
-406.83220840640945
-406.83285838634106
-406.8308588023908
-406.8272512630814
-406.82332835961245
-406.8202021582089
-406.81844457400376
-406.81793906703
-406.81800016666847
-406.8177056303247
-406.8163021226231
-406.8135254294376
-406.8097205658043
-406.8057424381135
-406.80268685304446
-406.80154835151075
-406.8029113721173
-406.80675969508377
-406.81244451440233
-406.8188249272616
-406.82454759451554
-406.82839884411356
-406.82963724061096
-406.82820597963274
-406.8247458179004
-406.82037437679253
-406.81631263767673
-406.8134694805281
-406.8121530505173
-406.81200342644365
-406.81219166731233
-406.81178899389647
-406.81015748653755
-406.8072144742048
-406.80348552515926
-406.7999453485079
-406.7977154712692
-406.79772093728405
-406.8004059094663
-406.80558229961133
-406.8124485612715
-406.819774772622
-406.82621178658644
-406.83064517163615
-406.8325041231196
-406.83190698045394
-406.8296003876612
-406.8266877010784
-406.8242341217306
-406.8228926688033
-406.8226961202663
-406.8230974775369
-406.8232372646194
-406.82232654792426
-406.81998816160825
-406.8164369163369
-406.8124521102236
-406.809158406726
-406.80770047981326
-406.808916409625
-406.8130925266892
-406.8198684952516
-406.82831269873935
-406.8371503728883
-406.84508911908114
-406.85115591067546
-406.85494656512117
-406.85670233344024
-406.85717612028253
-406.8573232943482
-406.85792410027835
-406.8592809003899
-406.86111117866216
-406.86267830702275
-406.86310413743223
-406.8617360849672
-406.8584268368634
-406.85363102132015
-406.8483019736922
-406.84361977626224
-406.84065895276507
-406.8400789330317
-406.8419378281035
-406.8456607593256
-406.85018497828383
-406.85425370906114
-406.85675374273836
-406.85704046245706
-406.85513030453507
-406.85168273168574
-406.8477659168671
-406.8444805754521
-406.8425742248765
-406.842193170891
-406.84286673416136
-406.8437277327643
-406.8438662718565
-406.84269513152344
-406.8401806238297
-406.8368812762835
-406.83378753249724
-406.8320332148748
-406.8325604548276
-406.83585416203783
-406.8417778176509
-406.8495876104579
-406.8580996818878
-406.8659764287489
-406.8720585669444
-406.8756519259776
-406.87667934070765
-406.87564454584646
-406.8734127940967
-406.87087587810714
-406.8686292937117
-406.8667765645347
-406.86494268764807
-406.86248143610675
-406.8587866506235
-406.8535832961439
-406.8470909106945
-406.84000841042837
-406.8333354171571
-406.8280967396266
-406.82505711060315
-406.82450593766214
-406.8261728622903
-406.829290719481
-406.8328041751931
-406.8356520981375
-406.8370592433054
-406.8367459376347
-406.8349845263226
-406.83247574663676
-406.8300803677283
-406.8284960606973
-406.82799685240474
-406.8283333671952
-406.8288317830079
-406.82864402353044
-406.82706046911034
-406.8237759900532
-406.8190060590245
-406.81344187612194
-406.80806022234725
-406.80383263299063
-406.80148814921654
-406.80132726292106
-406.80316234538
-406.80638112667816
-406.8101313802959
-406.8135611559723
-406.81605196908737
-406.8173744933174
-406.81771086707994
-406.8175350413335
-406.8173913331958
-406.8176517851913
-406.8183439294868
-406.8191155878204
-406.8193505496483
-406.81839125434743
-406.81578470661026
-406.8114636883416
-406.8058026160765
-406.79953449897994
-406.79356054259716
-406.78871404606997
-406.7855474448126
-406.7842022446503
-406.78439452100497
-406.78551901231646
-406.7868423896298
-406.7877298645799
-406.78783756530817
-406.7872085268691
-406.7862301419001
-406.78547426167137
-406.78546903815175
-406.7864829244668
-406.78840221403567
-406.79074770070815
-406.792820789242
-406.7939371919145
-406.7936540089556
-406.7919233791397
-406.78912073162184
-406.785944107588
-406.78322079439897
-406.78168104351687
-406.7817637819312
-406.78350677001083
-406.78654945747104
-406.790246750593
-406.7938615926986
-406.7967816226569
-406.79869350999587
-406.799657331094
-406.8000596750767
-406.80044432864065
-406.8012927906406
-406.8028230254557
-406.80488122767844
-406.80697413884144
-406.8084276439141
-406.808611572458
-406.80715212131616
-406.80406862476525
-406.7997854684612
-406.79502268422516
-406.79059980776447
-406.78722639078745
-406.7853226412178
-406.7849391085049
-406.7857791014826
-406.78731980567284
-406.7889938978867
-406.7903757794513
-406.7913142459552
-406.79196820594535
-406.7927320666001
-406.7940752071001
-406.7963482449707
-406.7996249693557
-406.80363492630664
-406.80781766341164
-406.81148074854383
-406.8140094737779
-406.8150565994836
-406.8146510539592
-406.81319126500927
-406.8113293820942
-406.8097848038299
-406.8091458928203
-406.8097162529894
-406.811442618192
-406.8139559960447
-406.8166976649047
-406.81909705281186
-406.8207497649724
-406.8215413812619
-406.8216773035421
-406.8216059677147
-406.82185618617314
-406.8228394177216
-406.8246828590926
-406.8271544403256
-406.82971121282424
-406.83166193400814
-406.83239038094933
-406.83156270091683
-406.829248743067
-406.82591821161003
-406.8223165530423
-406.8192643097231
-406.8174449840897
-406.81724291646333
-406.8186743712217
-406.8214235460518
-406.82496829556817
-406.8287564084829
-406.8323781884306
-406.8356813378701
-406.8387998195432
-406.8420790936182
-406.84591856193384
-406.8505967740989
-406.8561213985277
-406.8621659458494
-406.8681276643931
-406.87328972877737
-406.877032127068
-406.8790180754716
-406.87929027136823
-406.87825104905033
-406.8765324643549
-406.87480773346965
-406.87359987431034
-406.8731462158994
-406.8733518933739
-406.8738402913436
-406.87409584613437
-406.8736344247077
-406.8721716833316
-406.86973611645413
-406.8666779290665
-406.8635769917582
-406.86106201699124
-406.8595995789341
-406.85932998372346
-406.8600060772204
-406.86106869668265
-406.8618365707663
-406.86173778241334
-406.86049720147946
-406.8582167992028
-406.8553335894448
-406.8524789818768
-406.8502869643925
-406.8492039564391
-406.8493691684125
-406.8505815720497
-406.8523672492993
-406.85411849833855
-406.8552714377284
-406.855476450688
-406.8546970774729
-406.8532268115996
-406.8515909215073
-406.8503733127962
-406.85001465922994
-406.8506534814399
-406.8520645556351
-406.8537251849968
-406.85499148353534
-406.8553141961853
-406.8544174635909
-406.85238007403257
-406.8495973620113
-406.8466451806646
-406.8440955596841
-406.8423437660361
-406.8414958728545
-406.84134564608667
-406.8414438501911
-406.8412391059596
-406.8402519228198
-406.8382322520624
-406.83525311572424
-406.8317064420289
-406.8281934599642
-406.8253366639561
-406.8235723726488
-406.82299682248225
-406.8233259398864
-406.8239875283713
-406.8243134904815
-406.82376097667225
-406.82208272435184
-406.8193923594433
-406.81610883687443
-406.8128092353623
-406.8100425407027
-406.8081669568997
-406.8072479056887
-406.80704986265187
-406.8071158098474
-406.8069118669542
-406.8059981555177
-406.80417685760636
-406.8015648042553
-406.79857254885127
-406.79578188517485
-406.79375160892613
-406.79282552471176
-406.7929870799144
-406.7938643735615
-406.7948461354542
-406.79528194716806
-406.79469312091607
-406.7929197954629
-406.79015800814153
-406.7868824021601
-406.7836886877846
-406.78111042288674
-406.77946600543675
-406.7787776870933
-406.7787816383927
-406.7790242469265
-406.77901631410543
-406.778402447727
-406.77709347098033
-406.7753184777753
-406.77357029574137
-406.7724527189035
-406.77247234948976
-406.7738480552664
-406.7764100795561
-406.7796314169297
-406.7827839270255
-406.78516192741887
-406.7862942188752
-406.7860704002479
-406.7847473930723
-406.7828433514158
-406.7809571514226
-406.7795821285286
-406.7789622856199
-406.7790320746043
-406.7794503162914
-406.7797174286801
-406.77934644677026
-406.77803721178856
-406.7758005911766
-406.7729888430916
-406.7702102402739
-406.7681475354636
-406.7673346057433
-406.76797053334576
-406.76984253674794
-406.7723905358204
-406.774890937712
-406.7766909939647
-406.7774088317113
-406.77703301421394
-406.77589643737275
-406.7745442978154
-406.7735462982241
-406.7733138458406
-406.77397523345667
-406.7753412851997
-406.7769689519835
-406.7783049844817
-406.7788699403758
-406.7784290575788
-406.77709826689033
-406.7753352654942
-406.77381305805164
-406.773207113959
-406.77396530989796
-406.7761446819188
-406.7793788759215
-406.7829914775559
-406.7862146290008
-406.7884274791309
-406.789341405223
-406.78906310010944
-406.788031752187
-406.7868602246754
-406.7861357536471
-406.7862418503179
-406.78724950462714
-406.7889077598314
-406.7907303918635
-406.79215790379646
-406.7927492654242
-406.79234641173207
-406.791156616346
-406.78971606506957
-406.7887406957427
-406.78889568644047
-406.7905730854228
-406.79375353379487
-406.79800758257534
-406.8026378181224
-406.8069019571844
-406.81025457348903
-406.8125009116237
-406.8138287698901
-406.8147185029746
-406.8157708501431
-406.81751118372966
-406.8202288126456
-406.82389464060753
-406.82817712029953
-406.83255027716535
-406.8364631441506
-406.8395219827472
-406.84162899034453
-406.8430284941651
-406.8442375959632
-406.84587611985916
-406.8484499123188
-406.85216470248264
-406.8568409439029
-406.86196420702754
-406.86685262021695
-406.87087852267473
-406.8736644071688
-406.8751883576256
-406.8757708113794
-406.87595720187466
-406.8763385249807
-406.87736883293013
-406.87923044227193
-406.88177683270095
-406.88457611028394
-406.8870420869175
-406.88861413398814
-406.88893431602895
-406.8879667049557
-406.8860176536496
-406.8836449093976
-406.8814813346485
-406.88003142727524
-406.87951226123084
-406.87979540416336
-406.880468918716
-406.8809930689797
-406.880889982523
-406.87989953380287
-406.87805198942215
-406.8756404526049
-406.8731125184725
-406.8709181366554
-406.86936597203146
-406.8685275456675
-406.8682156453357
-406.86804173034386
-406.86753554923894
-406.8662928945276
-406.86410775289164
-406.8610467866013
-406.85743894857836
-406.8537795247108
-406.8505841418317
-406.8482217739936
-406.84680077361526
-406.8461426023768
-406.8458505835765
-406.84544731854464
-406.8445304380433
-406.84289413380554
-406.84057886753095
-406.8378391507027
-406.83504579183113
-406.8325573528158
-406.83060134154266
-406.82920021390566
-406.82816274947044
-406.8271432424427
-406.82575182149776
-406.8236842662358
-406.8208316505269
-406.81733380574127
-406.8135554065594
-406.8099880334721
-406.8071056605486
-406.805228293885
-406.8044248627508
-406.8045049298535
-406.8050913713015
-406.80574871925114
-406.8061214041776
-406.8060355006364
-406.8055321175985
-406.80483181831346
-406.8042407132497
-406.8040340031246
-406.80435394798127
-406.80515276512165
-406.8061966581781
-406.8071299194266
-406.80758052523373
-406.80727613128863
-406.80613448923464
-406.80429820739835
-406.80209972002734
-406.799964798596
-406.79828449849737
-406.7972977918963
-406.797024769855
-406.7972726743858
-406.79771150710826
-406.79799088703436
-406.7978569326207
-406.797229885757
-406.79621926972266
-406.7950752830776
-406.79409576076205
-406.79352034824706
-406.7934448922944
-406.79378317800547
-406.79428592708
-406.79461343478107
-406.7944360336814
-406.79354069945305
-406.79190541382616
-406.7897169879749
-406.78732427749367
-406.7851396658748
-406.78351965442306
-406.7826638235013
-406.78256562440157
-406.78303096392784
-406.78375645198975
-406.78443874872494
-406.7848765616316
-406.785031145669
-406.7850276436142
-406.7850996325583
-406.78549769898274
-406.78639255025354
-406.7878037919756
-406.78957519263116
-406.79140575680293
-406.7929271395088
-406.7938053619945
-406.7938371967502
-406.79301132837725
-406.79151432588975
-406.789677827103
-406.7878819755042
-406.78644512618445
-406.7855354507107
-406.7851336543688
-406.78505859097675
-406.7850461877742
-406.7848527488466
-406.7843460440731
-406.7835532467134
-406.78265075616025
-406.7819014654027
-406.78156170956555
-406.78178863514
-406.7825773763518
-406.78374767896656
-406.7849844115577
-406.78592116625526
-406.78624287193537
-406.78577747262864
-406.7845485475647
-406.7827717706199
-406.7807943634323
-406.7789948820262
-406.7776742081213
-406.77697337061096
-406.77684511651
-406.77708990334366
-406.7774413797146
-406.7776713043494
-406.7776756599951
-406.77751236962325
-406.7773785950305
-406.7775373483595
-406.77821688384415
-406.7795224974214
-406.78138157579883
-406.7835419803493
-406.78562506116975
-406.78721876785875
-406.7879848740592
-406.7877493111156
-406.78654920627247
-406.7846212182986
-406.78233287290794
-406.78007655333613
-406.7781587061291
-406.77672058258486
-406.77571808174304
-406.77496692131393
-406.7742368490702
-406.77335923505314
-406.772308823654
-406.77122807680854
-406.77039233867845
-406.77012274546337
-406.77068051029136
-406.77217601690245
-406.7745207956889
-406.7774366640654
-406.7805201353512
-406.7833436658923
-406.78556606320274
-406.78702096075324
-406.7877479241809
-406.7879775224567
-406.78805120198246
-406.7883092562159
-406.7889787290169
-406.7901014960218
-406.79152922645244
-406.7929889369886
-406.79419555646
-406.79496959348546
-406.7953167277944
-406.7954404014466
-406.795690044593
-406.7964516642111
-406.79803102282364
-406.8005575716709
-406.8039393577122
-406.80788066894183
-406.8119568522836
-406.8157253468523
-406.81884225072884
-406.821151265865
-406.8227185913535
-406.82380148721296
-406.8247579648135
-406.8259247187209
-406.8275053708811
-406.82950911946625
-406.8317638382403
-406.8339994306815
-406.83598946032527
-406.8376432616626
-406.8390650646693
-406.8405377656405
-406.84244273876334
-406.84514234183155
-406.848863868358
-406.85361917490695
-406.8591809613218
-406.8651217221376
-406.870905515213
-406.8760103688256
-406.8800499296199
-406.8828598903089
-406.8845245419475
-406.88533183322875
-406.8856690684294
-406.88589069306835
-406.88620205473393
-406.8866013431605
-406.88690158768657
-406.8868237101765
-406.88612287184895
-406.88469970013676
-406.8826551820362
-406.88027401220046
-406.87794457447484
-406.876044075619
-406.87482576903966
-406.8743412689717
-406.8744080460719
-406.87466887124026
-406.87468303986145
-406.874041802345
-406.87247760845725
-406.86993533605823
-406.8665842087209
-406.862762959928
-406.8588735135764
-406.8552571981262
-406.8520954242812
-406.84937069881215
-406.8469010743678
-406.84443294836024
-406.8417559876049
-406.83879599097054
-406.835654555382
-406.8325835827305
-406.8299072395865
-406.8279186508245
-406.8267849208687
-406.8264881650074
-406.82681875045216
-406.82742232009656
-406.82788815103186
-406.82785456055467
-406.8271022936693
-406.82560791515726
-406.82353915182694
-406.821190974659
-406.8188725843243
-406.816805010726
-406.81504706493195
-406.8134821834087
-406.8118711843981
-406.8099505936133
-406.80753980844355
-406.80461844586586
-406.80134824120375
-406.79803442943347
-406.79504173566664
-406.79269297263204
-406.7911806275369
-406.7905169756294
-406.79053491553645
-406.7909390444221
-406.7913921705052
-406.7916126594488
-406.79145394339145
-406.7909409766214
-406.7902503403733
-406.789638603886
-406.7893420886211
-406.7894833291913
-406.79001862894376
-406.79074696053834
-406.79137719200884
-406.79162878355396
-406.7913291519638
-406.7904738965066
-406.78923337911783
-406.7878993589092
-406.7867965610883
-406.7861858637508
-406.78618794283653
-406.786748561288
-406.7876547207035
-406.78859647404624
-406.7892571478644
-406.78940588798974
-406.7889644028665
-406.78802615025484
-406.78681921459173
-406.7856248584764
-406.7846770631755
-406.7840800953071
-406.7837744043699
-406.78356391629677
-406.7831949214306
-406.7824559423075
-406.78126376650755
-406.7797046339231
-406.7780201781077
-406.7765395093493
-406.77558748524604
-406.7753901884057
-406.77601571502015
-406.777355086206
-406.77915499375325
-406.78109121285564
-406.7828592158469
-406.78426341142523
-406.785267448142
-406.78599231963835
-406.7866611287677
-406.7875080948147
-406.78868382992454
-406.7901913272955
-406.7918772605569
-406.793482761747
-406.7947342245037
-406.7954411105906
-406.79556612429894
-406.7952456567408
-406.7947538707767
-406.79442372141415
-406.79455101536666
-406.7953111441864
-406.79671008673654
-406.79858801953975
-406.80066763724176
-406.80263780028275
-406.8042476585451
-406.80538248714714
-406.80609587689355
-406.8065873475645
-406.8071299051996
-406.8079716396771
-406.80924515141714
-406.8109180640346
-406.81280484214506
-406.81463066340046
-406.8161285716803
-406.81713415414043
-406.81764293947646
-406.81781633493233
-406.8179332513724
-406.81830742883096
-406.81919672265707
-406.82073150384775
-406.82288192503194
-406.825476189064
-406.82825815792916
-406.83097203583054
-406.8334464108163
-406.83565105483456
-406.83770733594235
-406.8398404781092
-406.84229895770943
-406.8452555616227
-406.8487325367664
-406.85257692713014
-406.8564974854429
-406.86015066777196
-406.86324564035914
-406.8656316345528
-406.8673403204142
-406.8685698950712
-406.8696187686425
-406.87079420802087
-406.8723230903252
-406.8742825182088
-406.8765801843092
-406.878986490011
-406.8812071142506
-406.88297660400934
-406.88414232598666
-406.8847130547657
-406.8848536719074
-406.8848271356569
-406.8849047928337
-406.8852688958862
-406.8859521466646
-406.8868264120631
-406.88765221474205
-406.8881629984959
-406.88815927462736
-406.88757758869133
-406.8865118119988
-406.88518531712276
-406.88388252022037
-406.88286537345306
-406.88229672568565
-406.8821956576304
-406.882436315884
-406.88278559370445
-406.8829766876154
-406.8827889764436
-406.8821142794478
-406.8809880076527
-406.8795750411257
-406.87811370792025
-406.87683480551686
-406.87588534588
-406.8752815430073
-406.8749079986289
-406.8745621549414
-406.8740271131981
-406.8731462858803
-406.87187315212105
-406.8702863443428
-406.86855615432466
-406.86688557436776
-406.86544066388893
-406.86429327242934
-406.86339181198974
-406.8625724134148
-406.8616029348159
-406.86024993333933
-406.85834878099985
-406.8558552905562
-406.8528623435403
-406.8495743102376
-406.84625126195226
-406.8431331962615
-406.8403746570238
-406.83801149917787
-406.835969091657
-406.8341075633575
-406.83228749821535
-406.8304231636651
-406.8285283698116
-406.8267169743732
-406.82517298361853
-406.82408692096607
-406.823603402678
-406.82376186522214
-406.8244821817014
-406.8255739617469
-406.8267810205731
-406.8278422354462
-406.8285481493515
-406.8287885672532
-406.82856017545373
-406.8279426922209
-406.82705372177156
-406.8259932745521
-406.8247997569136
-406.82343285909747
-406.8217919557152
-406.819758836313
-406.8172517927192
-406.8142723016579
-406.81092583356724
-406.80741108948655
-406.8039801997245
-406.80088272291465
-406.7983107039333
-406.79636019580164
-406.7950195332518
-406.79418668389644
-406.7937105063405
-406.79344245064505
-406.7932829374
-406.79320704883935
-406.793261773952
-406.79353529629805
-406.79411008070144
-406.79501404389225
-406.79619036436424
-406.79749675888263
-406.79873581538584
-406.7997068297912
-406.80026177891875
-406.8003472423759
-406.80001864708726
-406.799422946168
-406.7987561988644
-406.79820826998514
-406.79791253304904
-406.79791367257656
-406.79816242070103
-406.798537622512
-406.7988883220162
-406.79908257805295
-406.79904801324915
-406.7987911225106
-406.79838905846475
-406.797956530659
-406.79759895418306
-406.79736905933487
-406.79723800047145
-406.7970979014217
-406.79679331240357
-406.7961704174889
-406.79512917327645
-406.7936606784622
-406.79185835427097
-406.7898987351628
-406.7879993235576
-406.7863677339454
-406.7851554381117
-406.78443005614304
-406.78417313699583
-406.7843034815774
-406.7847167089167
-406.78532825847867
-406.7861063150229
-406.7870827103742
-406.7883373098373
-406.7899603260195
-406.79200581593614
-406.7944509394555
-406.7971775436507
-406.7999842125021
-406.80262634207264
-406.80487229627363
-406.80655759336446
-406.8076214512126
-406.8081141600454
-406.8081729205456
-406.8079769180209
-406.80769540476683
-406.8074440271959
-406.8072615455733
-406.8071136196035
-406.8069208974289
-406.80660198458855
-406.80611748846167
-406.8055007277682
-406.80486428909745
-406.8043779266763
-406.80422459446294
-406.8045472391985
-406.80540247025624
-406.8067386729604
-406.80840590158897
-406.8101917307673
-406.81187636245244
-406.8132948677137
-406.8143706993165
-406.81513365701676
-406.8157029777344
-406.8162504521156
-406.8169532772145
-406.8179513737736
-406.81932065875196
-406.8210673139732
-406.8231443169401
-406.8254821833393
-406.8280194091682
-406.8307305732055
-406.8336338807782
-406.83677688643974
-406.8402032974094
-406.84391269781804
-406.8478281826473
-406.8517854619342
-406.85555105255463
-406.8588656067778
-406.8615030197871
-406.863323447955
-406.86430978512533
-406.86457113764004
-406.864315013171
-406.86379846962495
-406.86326938096954