-1.2577013902215397 0.0006371193628710331 0.002014202214984533 1.2513728769052734 0.004006292942799208 -0.00530675692076599 0.018372074734992954 -0.32196073669461983 -0.5573231194400694 0.019762013102902883 -0.3220029027864321 0.5574156791538036 0.019521357847193728 0.6435466065486158 -7.559043288300392e-05 -0.019122836857504422 0.32036408163270336 -0.5550075839348165 -0.018127819934860796 0.32261122579391915 0.5585073695552364 -0.01840189953164067 -0.6448115893029844 -0.00022368597485786877
-1.1726904353629124 -0.12472729958074762 0.09693624553202689 1.290277781470323 -0.01115293128435015 0.04961612032663457 -0.035012768602522816 -0.2621553345477355 -0.5209481803837569 -0.0638728873448746 -0.26149044727074416 0.46546223154447275 0.012970186997333386 0.6543426687144571 -0.02728968893265999 -0.03786257934427525 0.37206176707709576 -0.634617679497048 0.009313564084197054 0.3377493669751624 0.570025911708837 -0.00732147335638238 -0.7022901430907151 0.0009806187449516222
-1.0412391868000004 -0.24458235867464856 0.19063958595156774 1.2749102978872717 -0.025542367225609323 0.09912065477615614 -0.09842748536441268 -0.1827077327051709 -0.44870738069667054 -0.1571160002989033 -0.18087762147639125 0.33840294139825283 -0.006291489430772469 0.6198940001450817 -0.0540399604225018 -0.04165495650422188 0.397704921546549 -0.6696613013374823 0.048713663117725244 0.33009262176680915 0.5424688280476113 0.016940998716534452 -0.7116942100061191 0.0021098472525099663
-0.871205450008213 -0.3519475128413707 0.2782833504453037 1.2066963599682587 -0.03885451094312774 0.14037554762879315 -0.16900838085186407 -0.08717788060127339 -0.3454451929515368 -0.255435499330626 -0.08531177392826371 0.1850057847089406 -0.0375761584523308 0.5417545755899617 -0.07956124460220498 -0.029962093556421696 0.3963849171845717 -0.6585381948497798 0.09859255018723884 0.300258054927088 0.4774883094617164 0.05367949175956993 -0.6728607821088975 0.0028806639796638642
-0.6731713713705392 -0.43904774612723363 0.3543345250144517 1.089353782881612 -0.05088573106668993 0.1704615683574924 -0.24315231109745372 0.019582035881752873 -0.21847332031273262 -0.35323306442101365 0.018241462694501234 0.01725158797817618 -0.07948359728679456 0.4238093319227783 -0.1031300330427465 -0.002980937002876012 0.36833212483423566 -0.6016257979777238 0.15678484221198727 0.250078348787938 0.37878005963230965 0.10151229493492384 -0.5878827373707091 0.0030256741978475854
-0.4603123119164232 -0.49776762852026757 0.4130127555363052 0.9289935646163218 -0.061497702246326336 0.18623374357781552 -0.3165218250714666 0.13137977189508382 -0.07770028013551389 -0.443993005943804 0.12116015105755444 -0.1499292527480675 -0.12981911227739729 0.2725909280506449 -0.12412103345578801 0.03833154856052899 0.31495910857125264 -0.5013450614560979 0.22040319034409256 0.1827488703557195 0.2522812699748141 0.15834087384398707 -0.46135669401972507 0.00231450706398912
-0.24788982577875385 -0.5207522623230193 0.4492072031508358 0.7343512852663778 -0.07058346659061066 0.18446379616296316 -0.38424108274263286 0.24088511233159546 0.06462210680549049 -0.5207815728990353 0.2137923699009368 -0.2998019412266307 -0.1854860667790952 0.09759907592649078 -0.14205396377117493 0.0921251973003712 0.23907248460429897 -0.36255485603532034 0.2858243960114891 0.10296239711676104 0.10637990743608382 0.22127582275635418 -0.3007542778368302 0.0005784982108393157
-0.052281325861550286 -0.5030898120599893 0.45970810267399104 0.5170524448768069 -0.07802372491295205 0.1623492236693137 -0.4411776479843861 0.34006078871536033 0.19475695055084813 -0.5769864021816556 0.28658647098790146 -0.4158363410258329 -0.24243394487474929 -0.0885991864277266 -0.15664651686201772 0.1554483827897905 0.14514905775432324 -0.19304922383245043 0.34874700362869165 0.01690654593420002 -0.04812899425930364 0.28656487372136347 -0.11675945089012078 -0.002247144161215831
0.11057646201267017 -0.4441575565459983 0.44439924024297117 0.2915579560566966 -0.08366009725873848 0.11837924588047086 -0.4824546523241929 0.4209250683986914 0.29891696751920455 -0.607266798309197 0.3315612358913932 -0.4843223016590981 -0.2957282853810582 -0.27073819111406344 -0.16783852891438897 0.22403564488753164 0.039593445991106486 -0.004001150736480636 0.4043877328781649 -0.06800722122500624 -0.1985220740173063 0.34961243695210725 0.07673457378888612 -0.006080144751079173
0.22700115527145193 -0.348961947852808 0.4068842740458314 0.0747419688404396 -0.08729152336091381 0.05336735983603263 -0.5040750587906275 0.47657762472269727 0.3652570854557298 -0.6084690461464791 0.34376986213294614 -0.49697315764404826 -0.3398648706546228 -0.4320137221040594 -0.17579249364795568 0.29222490021621533 -0.06924546450651832 0.1899788124396313 0.44784708957957353 -0.14374266432619387 -0.3311565442541216 0.4051477509720497 0.2631714345162852 -0.010643338638179695
0.28734546064052263 -0.2282311710228543 0.3541092963776983 -0.11534071616682684 -0.08872208515874046 -0.028696596581421204 -0.5035099303162165 0.502204838352563 0.38582385384748913 -0.5801899967181258 0.3222487002484598 -0.4525856327021373 -0.3693271417568793 -0.5559465508085878 -0.1808231140894144 0.3531708437245589 -0.1715064646814262 0.3715778854625182 0.4746508400151285 -0.20260087206919739 -0.4330802156945312 0.44764705775378116 0.42482697455322355 -0.015450787325412373
0.28740356757192254 -0.09691413404485702 0.29497238105222817 -0.2613588067889887 -0.08786230826227527 -0.12040836049377926 -0.480146315907786 0.49589689386157115 0.3580888498476409 -0.5248670558191404 0.2701879750379763 -0.357274838587411 -0.37938066933031883 -0.6288589226408795 -0.18329240156359253 0.39942036157442457 -0.2567760725178776 0.5224527899525709 0.48135936237833715 -0.2383582321466494 -0.49390428891312466 0.471963522993043 0.5449576559057999 -0.019831947108835457
0.22906935065278144 0.02868322684499292 0.23832789312936983 -0.3491568374722818 -0.08481863634231268 -0.2117452575655134 -0.4354255759964317 0.45895991165463884 0.285454157156552 -0.447302015709805 0.19420313493033792 -0.22311518995650728 -0.36692675984737005 -0.64230733482584 -0.18348523430053895 0.4239132044904135 -0.3155977705960193 0.6258270777954497 0.4661183770707224 -0.247309784906019 -0.5075234223478617 0.4741011381596732 0.6104590799917662 -0.023025257232668482
0.11991933667288308 0.13418895920691953 0.1911013560789755 -0.37012675483941715 -0.079870805422583 -0.29190145543877716 -0.3726376941847758 0.39567066472692214 0.17661781776208643 -0.35382390392701757 0.10300919119426007 -0.06571688253071441 -0.3311791699619233 -0.5948663677719613 -0.18151114129483928 0.421279366414041 -0.34122652688778055 0.669582625580808 0.42902764289486484 -0.22895005146619057 -0.47323879016004866 0.4519587977519035 0.6142879668165748 -0.024308751929783975
-0.027670726420866147 0.20970431587767233 0.1573103756977453 -0.32303802891836064 -0.07343841953868167 -0.35151042530429205 -0.29640808505637334 0.31247285181622325 0.043899015341646565 -0.25137418478021806 0.005947475828060023 0.09841103030419326 -0.2738944773524028 -0.49232408891142754 -0.1772729348470725 0.38892511847821976 -0.3309472564569558 0.6486106513311453 0.37215432679083 -0.18599617364589752 -0.3957637386612883 0.4057776712460747 0.5567939864098883 -0.023140956874836343
-0.19836677938648545 0.25102708585371447 0.13781627154404 -0.21446651314930157 -0.06587834780911755 -0.3847141657239414 -0.21206664546042414 0.21702630345468657 -0.0987082498294067 -0.1466336127184949 -0.08827677009155216 0.25410263945285216 -0.19916382136586405 -0.34675388445961325 -0.17051247620004625 0.3277827426885067 -0.2867854743724302 0.5661353184082057 0.2992316705459011 -0.12387215066996915 -0.28435629610753693 0.33820959444067455 0.44566216611481246 -0.019289958562858003
-0.3756284013796571 0.25906589699153754 0.13115762858212152 -0.05762407822654627 -0.05742970282770427 -0.38994944597687925 -0.12502451910596107 0.11715797187981009 -0.23750514011839832 -0.045565090188863795 -0.17231739061786494 0.38876262475855294 -0.112715619841196 -0.17412950412452963 -0.16090837745884992 0.24213775379079952 -0.2149195415259677 0.43279739434700976 0.21511597380733716 -0.049669599272347716 -0.1510852207284824 0.2539010649651642 0.2943182924085059 -0.012866828650330096
-0.5434880133399521 0.23845747672859777 0.13444195575779327 0.12964324882130215 -0.048076543754854206 -0.3696670415945369 -0.04027838787274023 0.020078258791495045 -0.36049231708094126 0.04692520376012601 -0.24059766299838736 0.4930357702659179 -0.021042936696859093 0.008225473227187285 -0.1481942723361814 0.13893470141832934 -0.12447481725050574 0.26460508163790303 0.12520243944458365 0.02888737243584021 -0.00910376206639933 0.15880007286823553 0.11950178951981508 -0.004304540909276366
-0.6876903909110265 0.19564449536143358 0.14436744239390037 0.327619734748208 -0.037725796656201245 -0.3289546515085092 0.03787492063943982 -0.0680905249673671 -0.45812018936281607 0.1269749579625953 -0.2892208232849057 0.5605873920110986 0.06943932568472846 0.18392129339635382 -0.13224469099786756 0.026472592348638944 -0.02569971873895762 0.07978698745959029 0.03481736476241709 0.10444540941903713 0.129057037300985 0.05932974806241651 -0.06133829385045061 0.005738702251526012
-0.7965200454372778 0.13739306796402156 0.1578302527565529 0.5171871706823534 -0.026272046302214653 -0.2739844659629778 0.10596904515122993 -0.1425059637065774 -0.5235146555573561 0.19171842083720408 -0.3158055157312895 0.5877768079205465 0.15301097699478752 0.3390241199215363 -0.1131203114784676 -0.08682461102718751 0.07158105461641358 -0.10395638559814097 -0.05119066390138123 0.1706621144039167 0.2525574064541214 -0.03832949167800156 -0.23219066988815448 0.016485913457340854
-0.8611020430334834 0.06986304348537878 0.17221300382959792 0.6815757933776128 -0.013704494059625427 -0.21071013143358497 0.16138557420521338 -0.19961067909494792 -0.5523331224285274 0.23920001132099955 -0.3192523366266281 0.5732212787151975 0.2249987801310001 0.4627543456971128 -0.09106950234316843 -0.19335775621156476 0.15904484188899953 -0.27139536508157697 -0.12870325350626724 0.22253257798061313 0.3528011190902536 -0.12875210446629368 -0.3797745623343214 0.027148278258899265
-0.8754755381351549 -0.001683044128068516 0.1853719097988229 0.807312508058696 -0.00016043683713943692 -0.14413912843335577 0.2023149653978848 -0.23704799797667736 -0.5425017381680501 0.2683486078378232 -0.29958956810567366 0.5175111296804236 0.28187518155882607 0.5475323586095089 -0.06650261165619217 -0.2868955175876476 0.23035078846736953 -0.41067716542640986 -0.19444790395110195 0.25646291215307665 0.4235655913432779 -0.20751682130975188 -0.49403438673298455 0.0369914895939092
-0.8365901739541158 -0.07269382806375248 0.1954403497705863 0.8844826267227651 0.014071133370139589 -0.07814970896775705 0.2277118081846785 -0.25354625272918274 -0.49398502155232626 0.27899503179979407 -0.2579274125126058 0.4231362171156773 0.3212218016466411 0.588678750908824 -0.039960599522252505 -0.36271837819625097 0.28113881761400655 -0.5134045637144122 -0.2460057213836292 0.27017923328723475 0.4608758977289386 -0.2712678383648764 -0.5680729017490435 0.04537842809949964
-0.744363160968637 -0.13889510642967634 0.2005799849859987 0.906581258376827 0.028569584085352484 -0.015689899919225956 0.23731642114650675 -0.24893163677889651 -0.4087082146270287 0.2720150009429648 -0.1965397534814969 0.29461654037498297 0.34163481806947515 0.5840399665888404 -0.01208469906927534 -0.41753789709664824 0.30877663391443383 -0.5742409782281702 -0.28178365028635544 0.26260682026250604 0.46276308744785444 -0.3176597953297665 -0.597790740505333 0.05177996074548955
-0.6018571972620594 -0.19577716428445271 0.19873290447636777 0.8702510565154862 0.04282995064801551 0.04082243330124512 0.23172324333379635 -0.22417191335497377 -0.2906035625639697 0.24948442395814294 -0.11901945056713302 0.1387758072430855 0.34263651986033294 0.533721420879089 0.01640929458319414 -0.44930747617404787 0.3120229087633482 -0.5903551101686784 -0.30100676016707206 0.2337898960532303 0.4291335723450274 -0.34528218501123803 -0.5815449680830694 0.05578008304070647
-0.41559002934317324 -0.23827801372807966 0.18754552040968317 0.7751490359772938 0.05629944587888221 0.08910826485326519 0.21247956462780543 -0.18151834038368528 -0.14576046608560142 0.21483829466613427 -0.030401237976027718 -0.035054420473703246 0.3246686225419797 0.4400263079896578 0.04474799360484275 -0.45704752512476204 0.2907681131661639 -0.5609828276769968 -0.3037367575016018 0.1848684878002347 0.36171359108160206 -0.3536197583361702 -0.5198940280884498 0.05707489059172283
-0.19574322572275016 -0.26081219025732455 0.16451460675006427 0.6239810257270824 0.06841345552417341 0.1267589852972153 0.18221253823669245 -0.12469696056346802 0.017371915606030762 0.17290925856513256 0.06280022310682054 -0.21500233104769673 0.289194598032681 0.30771682519217625 0.0721271569274459 -0.44081820776271785 0.24595481354107535 -0.48733769144430855 -0.2909722587570112 0.11818024249594213 0.26421067441326856 -0.3430838918100486 -0.4156609917903695 0.05548800572181159
0.04387073320689442 -0.2578004000165371 0.1273950762188226 0.42278911818917364 0.07866444382024608 0.15117109557400257 0.14465592016837223 -0.05896619407569349 0.1880417433194253 0.12971421126849847 0.15287368008608163 -0.38717882521243285 0.23882154493595267 0.14431087812439605 0.09774922835099308 -0.40177137830327553 0.1796208662521323 -0.37270865663197206 -0.26472592348638946 0.037356586242527794 0.14245968384971025 -0.3151169743052328 -0.2741500450064358 0.050995774281907366
0.28641112175243816 -0.22476429552287325 0.07487155243966759 0.1813152232341017 0.08666417419004807 0.15979251868771988 0.10453334114708472 0.00900914547013761 0.3536002179521597 0.09189071269224434 0.23152835371432248 -0.5367589221514693 0.17743645700800306 -0.03956362119445877 0.12087527282750556 -0.3423588407191301 0.09511230495082951 -0.22290230261491842 -0.22811032917436783 -0.0525836875930823 0.004559080122045665 -0.272338445720403 -0.10347558930735451 0.04376377531546813
0.5133104613387823 -0.1598125732923623 0.007295762324789522 -0.08678964402422122 0.09221724279347365 0.15067950064994712 0.06719423840604007 0.07160779408927014 0.500426149186969 0.06580635692065756 0.2908714715131672 -0.6497522211338681 0.11023759061627629 -0.23014767131778593 0.14088925404001848 -0.266563748024647 -0.0026744615062891386 -0.04674265543581671 -0.1852747220994019 -0.14528943998682026 -0.13922883561975166 -0.21864558422440475 0.08517190591639855 0.034193100915342486
0.7063766544520841 -0.0651671806752591 -0.07272468130166392 -0.3640507238533929 0.09533959047011038 0.12334970250800227 0.037976736324547546 0.12111387120068727 0.6154300508399295 0.05641360285915449 0.3246357124215408 -0.7151204620761834 0.043508207661435115 -0.41111888094917526 0.1573597408784036 -0.1801170891618745 -0.10708541814299184 0.14350252329111657 -0.14120601394924245 -0.23335435117804726 -0.2769355781692061 -0.1591975654166611 0.2775927521367195 0.02294915257915362
0.8500848659959436 0.052050440797846424 -0.16032782236548318 -0.6303301078686229 0.096313010126216 0.07960546757654471 0.021456884305504114 0.1507782310112637 0.6877592964756952 0.06636222942369516 0.32919376410232276 -0.7265464445160497 -0.015877590449853825 -0.5648821627283698 0.17008053086928623 -0.09033108151582155 -0.20987503712744887 0.3323803893579417 -0.10121713229223783 -0.30895249737052904 -0.39595657139823476 -0.10009870241794849 0.4573262327072286 0.010953927899821424
0.9340817777685485 0.1801037194254462 -0.24898820104840078 -0.8645267524416522 0.0955565915767541 0.024112319648414537 0.020591965202720355 0.15600322685156437 0.710610747134796 0.09535861663348909 0.30430497129980394 -0.6836779273206449 -0.061352692028142614 -0.674810192524268 0.179089162118792 -0.005680081099494294 -0.30165262128068465 0.5021055937706146 -0.07032635627468209 -0.36471046892406567 -0.48444777149327134 -0.04783074629282648 0.6071397858131282 -0.0006499748786674622
0.9548367509115675 0.30441141497059837 -0.33158694692298607 -1.0473517274508866 0.09351719255080856 -0.03565965815739913 0.036177478333679305 0.13523591241338073 0.6823646078268817 0.14021973877734042 0.25310093766199443 -0.5920813488298229 -0.08771215583777298 -0.727888046144565 0.18456715450996644 0.06517592242600066 -0.3729472550051538 0.6345287193277367 -0.05246181730333215 -0.3947553520022164 -0.5330657895734711 -0.008379225196112578 0.7112164990391238 -0.01066802122850884
0.9161334208342057 0.41030178436515413 -0.40168138969270056 -1.1643688028775676 0.09052699957655913 -0.0904683784245274 0.06669133062808373 0.09028274477642696 0.6068322818752777 0.19552982416052944 0.18146023345228543 -0.4621352240563568 -0.09209331562119606 -0.7171552331164422 0.1867536206366231 0.11474370601324067 -0.4156419656269909 0.7139038160612093 -0.04977758560503772 -0.3956763211538725 -0.5365208379989195 0.013773399624294285 0.7577184992192313 -0.01803474600049465
0.8283770420220933 0.485874733746675 -0.45451293163033807 -1.2087547851575828 0.08672073845955235 -0.1311144340490455 0.10863065114172264 0.0259424308771942 0.4925076656770006 0.2546739385748455 0.09695270059224632 -0.3071887206032589 -0.07453473792580115 -0.6431146612178558 0.18585630563403235 0.1381021782153526 -0.42449170270125275 0.7298569969439461 -0.062268004752848376 -0.36714016140959077 -0.4945347234077815 0.016482828133549714 0.7409754754459619 -0.02199887285148157
0.7067582061609221 0.5241204074616838 -0.48752692463683206 -1.182452399838089 0.08211332159811212 -0.15056380100777925 0.15715508106692444 -0.050872875550893495 0.35104814095625253 0.31093841745076145 0.007636176383078968 -0.1414554109556932 -0.037998333591085544 -0.5138025704834697 0.18199913667447173 0.1339117942863485 -0.39821811373714255 0.6795749608990566 -0.08785870871785227 -0.3118763558832689 -0.41176782738657897 0.0002925915395267295 0.6624760964485419 -0.0222590684912013
0.5687053931262278 0.5233573040440077 -0.5001777806217821 -1.095736289364223 0.07657979337869712 -0.1453233785485228 0.20692289647995687 -0.1322817148833613 0.19550051358451356 0.35830996471933946 -0.07885881921908809 0.02154995823987026 0.012328953869407498 -0.34307566427993896 0.17522787939417653 0.10464441280356584 -0.3398160196945963 0.5684873635783204 -0.12277634650348151 -0.23526879459045152 -0.2970842851872656 -0.031643595022594645 0.530790877498135 -0.019011250980391414
0.4316367983809081 0.4865828155567423 -0.4935433060295609 -0.9650548290872014 0.0700630753111712 -0.11596086624884659 0.25280680346057216 -0.21051627025537478 0.03866733463313172 0.39203101109463706 -0.15602739522126166 0.17022811219062928 0.06999982617345278 -0.1482760334166467 0.165555903529575 0.05595594649680162 -0.25592246626899473 0.40911959113251456 -0.16230757179813327 -0.14440138095560293 -0.16194761735583324 -0.074326478569899 0.35975492469485804 -0.01288791169623624
0.31093327524444286 0.41984211974800023 -0.46967061319559184 -0.8099124075733659 0.0625631673955344 -0.06636274364432701 0.2904374692998798 -0.27873946414576106 -0.10809226214016819 0.40875295182200033 -0.21876899717605053 0.29536575983559893 0.12839677800968038 0.0525908866819283 0.15303463114385293 -0.004566793431523523 -0.1554895204403391 0.21857976398352705 -0.2015117527709239 -0.047064043330727445 -0.018777794813528263 -0.12181578236317232 0.1661770820528585 -0.004821846864924679
0.2187674545141549 0.33054307904031605 -0.4310675561414422 -0.6497645624290327 0.05415103207898295 -0.0023762135398119806 0.3164729741114401 -0.33149284454735617 -0.23551407783184736 0.40649089526246074 -0.2634285448322138 0.39021272694039016 0.18158673172772227 0.24295742147797988 0.1377926173949746 -0.06883357378040071 -0.04822566773809279 0.01553871905345995 -0.2358534634488731 0.04916412039123213 0.12053280188668869 -0.16818511362026076 -0.03267615005136384 0.004119935702439642
0.1636363179108522 0.22615680499394242 -0.38036797294348457 -0.5016427952019431 0.0449346556942069 0.06962855887725189 0.3286553751007683 -0.364842623626453 -0.33659442743601115 0.38445654118738093 -0.2876966733320811 0.4503055784204827 0.2248100611591085 0.40905994153921915 0.12007977351002251 -0.12943293258287258 0.05673859029848824 -0.18237348929446376 -0.26160717535417577 0.1375653318756937 0.24564216739690617 -0.20823107376740152 -0.22100791380715662 0.012889968578763669
0.15040696371506282 0.11350032052541005 -0.32021032966377805 -0.3788705624635166 0.0350081406168361 0.1438192832003406 0.3257556849577258 -0.37632619877708723 -0.4065484879732286 0.34289671550005263 -0.2904734647441098 0.47325524522026813 0.2546564550733623 0.5404613107008409 0.10025451126940121 -0.18034540312241906 0.15171976898819417 -0.360262974679133 -0.27602437920955514 0.2126472005537909 0.34830271700276705 -0.23786200923690717 -0.38569529868952485 0.020553912875962924
0.1806945589314501 -0.0013421158491472125 -0.25327731533872144 -0.2906318446987218 0.024492842915988845 0.21540548002307275 0.30743503228591856 -0.36478605935694863 -0.44256398680787296 0.2829565875476217 -0.2717573764064044 0.4585737319601141 0.268943561108882 0.6298498257984683 0.07877602969735908 -0.21719908158699056 0.23081461547730472 -0.5066734156434018 -0.2773798647951307 0.27025945170580445 0.4225052684003885 -0.2542404505821899 -0.5167449409389564 0.02635586426520737
0.25316830056476775 -0.112873999795808 -0.1824783903033626 -0.24247713940782528 0.013447897964328699 0.2806996731944006 0.27418295512687463 -0.33029008248944225 -0.44371018459628264 0.20668944031309372 -0.23269306344547894 0.40780730008001503 0.2666182554116238 0.6728808367135399 0.05617911825102763 -0.23714775677925762 0.28986925550167764 -0.6135377189146951 -0.264842651569821 0.30755895945819606 0.46435717140661165 -0.25564324446589626 -0.6071546982114521 0.029716296094393968
0.3639231971366923 -0.21572481103545604 -0.11114261892834491 -0.23671272612470642 0.0019329553551511002 0.3368330258091929 0.2272078719654585 -0.27401994718657596 -0.41080469214311044 0.11703455892816436 -0.1755991466903774 0.32461514359626653 0.24749336167159197 0.66759516283868 0.033051016891987715 -0.23865030946554425 0.3262477941024131 -0.6757630433550993 -0.23842508082879083 0.3229552393966316 0.4719506674772465 -0.24135716687164038 -0.6526812218529265 0.030229488284987425
0.506543317823542 -0.30432245480128706 -0.04315339542545367 -0.27307326700332685 -0.00999542064203966 0.3814010421928857 0.16844942302503532 -0.198292731615498 -0.3465476819862386 0.017903619739371074 -0.1041034526988521 0.21505632421404172 0.21216126205668587 0.6142931090228932 0.010009818819731663 -0.22116372265860937 0.3385325249974808 -0.6906523017505236 -0.19884808989790376 0.31601223242529614 0.44515411613053757 -0.2114958605590627 -0.6514404074682552 0.027638844741691003
0.672257601307729 -0.3728212709503488 0.017114291069470315 -0.34908330392192627 -0.0223058625687003 0.41216069194931776 0.10058361247378979 -0.10667249897561053 -0.25572757664952084 -0.08583885007591731 -0.02321963263151049 0.08776306368032684 0.161966643519212 0.5156100560044476 -0.012327925428143783 -0.18499344341377605 0.32638406256985525 -0.6576604202311996 -0.14753195616234938 0.28751669611093106 0.3856886138213107 -0.16691858820399652 -0.6038204916344903 0.021833293808023565
0.8499557966173474 -0.41533703279229955 0.0650771920646841 -0.46010508100178477 -0.034891926754036386 0.42687254422675147 0.0270145808946164 -0.004006807163431065 -0.14536297353717584 -0.18849528591672335 0.06072328597474944 -0.04615798657739511 0.09904403590200943 0.3767473454745783 -0.03338114653764002 -0.13121367863099395 0.2904816922742195 -0.5782673257756118 -0.08656801493189077 0.23951522856832802 0.29715164809003886 -0.10922457597151766 -0.5125576423337435 0.012862200664643381
1.0265674437318517 -0.42679284002881357 0.09662308516722587 -0.5992058756842039 -0.047594719022804044 0.4233773865920183 -0.04821075533976893 0.10361905686364266 -0.024676419681561854 -0.2838724144929593 0.14045216650293985 -0.1738009171407729 0.026419113402925798 0.20587851437665494 -0.05266596289417944 -0.061767153857419495 0.2326668381932542 -0.4562746515150807 -0.018732543397924833 0.17546493510546268 0.18520067432841447 -0.040817805315558404 -0.3830002683579614 0.000958507257781764
1.187524157930096 -0.40419849968564137 0.10908779328344367 -0.7570566972660312 -0.06022397774121612 0.40005131028971336 -0.12054308629932582 0.2090476561307907 0.0951868669424488 -0.3658083299730807 0.20838996794264542 -0.2816139574778426 -0.051825726381724835 0.014633176520759473 -0.06985635861716462 0.02038062052302706 0.15616674901249497 -0.2982315114169389 0.052584716034346016 0.1002005181030562 0.05749346618605456 0.03509093013856511 -0.22328951075070688 -0.013422186932735839
1.317916626212014 -0.3479782437840652 0.10220032214034871 -0.9215265668211239 -0.07243568930656019 0.35634461346438134 -0.1853153455293186 0.30460527614880856 0.2020650541708022 -0.4289057726051147 0.2576286503254968 -0.3572275302892801 -0.13065163548037406 -0.18209581015326087 -0.08485566022780641 0.11099040962131518 0.06590817260576527 -0.11404899393960163 0.1234381484566817 0.01996564447311832 -0.07627434632337396 0.11435341255366108 -0.044825126699621326 -0.029547117506512965
1.4038146116605952 -0.26311127070235796 0.07877037327040866 -1.0779391132956466 -0.08379739416744435 0.29362100923170753 -0.23817722648423567 0.3828120636067017 0.28409198670276237 -0.4692468953949415 0.28297509949036853 -0.39140828990945803 -0.20422889458965718 -0.36678894871803236 -0.0978366458584088 0.20442635531229034 -0.031342261732326335 0.08276586757993887 0.18957566346425528 -0.05798557533074187 -0.20497914249153676 0.1920099839354671 0.13806515432985889 -0.046396584950576844
1.4338564094149546 -0.15929783843987327 0.044650291684789886 -1.2097204915042106 -0.09381955428234058 0.2157880601731745 -0.27564899814829946 0.43734876115957755 0.3313792017877158 -0.4849537645950187 0.28184175721775534 -0.3797226260505039 -0.26644753416184724 -0.52096566388524 -0.10923897414920967 0.29372693868187005 -0.1271287099315206 0.2754361108067106 0.24678322297899727 -0.12601182271912684 -0.3169959364940389 0.2625415142422602 0.3089103312787167 -0.06268143814086154
1.400740600723353 -0.04983260721264645 0.007817696266124548 -1.2997795503057799 -0.10203782842068186 0.129460186276361 -0.29560590087067623 0.4639725343739825 0.33766092102648293 -0.476420273209349 0.25469039363506496 -0.3233630163576944 -0.31166655386547115 -0.6276551321417019 -0.11966839700453677 0.3710605795068698 -0.2119499173769926 0.4451880546922401 0.29132141456604227 -0.17699217038207848 -0.40152763772377525 0.3203558541025936 0.4507169549259684 -0.0769520891161617
1.3022858616654518 0.05074997681987963 -0.023223232175933493 -1.332558544483515 -0.1081076887591239 0.04331588914512053 -0.29757999387637585 0.4611792879017344 0.3014495041311011 -0.44613576331675286 0.2048984098523352 -0.22885852019372002 -0.3356168940148507 -0.6742651186544995 -0.12974249340325059 0.4285864415927314 -0.2764275281849312 0.5735884322463435 0.32038413623734574 -0.20534218225762796 -0.45010914613911324 0.36047174825566697 0.5482496963909496 -0.08776512056285428
1.141816628626208 0.129611367142127 -0.04121735474651143 -1.2964119193877472 -0.11186201359231308 -0.03337034790437102 -0.28278586629784513 0.4304052399676102 0.22631672761045007 -0.39818777471986294 0.13808315205197388 -0.1067953977066244 -0.3361779087242069 -0.6550533216276837 -0.13990143620622084 0.4596520526251186 -0.3128626310551709 0.6455438394827491 0.332469349527253 -0.20791894184386422 -0.45793969792103423 0.379264969688151 0.5905304594041416 -0.09391159977544301
0.927704413492256 0.17814813836249338 -0.041554169260377874 -1.1857269568217554 -0.1132509235189593 -0.09276077400134666 -0.25388820944936774 0.3757528427725665 0.12031374389751752 -0.3375807026079133 0.06113517670086703 0.030020714708453414 -0.3138252520780076 -0.5724103527787587 -0.15023984200970925 0.46007679886703257 -0.316801046874565 0.6523834881070814 0.32757036956754976 -0.18456921139249385 -0.4246963625127319 0.37508538439241595 0.5728885779663859 -0.09463922196952092
0.6722982247376458 0.19322920105360045 -0.022800542816546896 -1.0021465917043226 -0.11232789748477569 -0.13011890290577005 -0.21452204897754212 0.3032132808983712 -0.005522729586146 -0.26958016625112113 -0.018830759538609552 0.16853221254676432 -0.27151672115069525 -0.4362550138756173 -0.1604466073314422 0.42898753368557996 -0.2879198450863071 0.593560247367044 0.30712855678933165 -0.1380625832266996 -0.3544383975820868 0.34854542914100367 0.4977768844916409 -0.08978960719047595
0.39027546185747664 0.17692069371425032 0.013599078830094705 -0.7544218307483951 -0.10915104242116208 -0.14471145599661278 -0.16880063571659373 0.21981029395556126 -0.13877375036055806 -0.19922347095915946 -0.09520589310582751 0.29675775508603625 -0.21414409681312713 -0.2622067566109212 -0.16984398937863196 0.369090600266225 -0.23017183968748325 0.4769298658555194 0.2737756923864438 -0.07365233532153426 -0.25497064387942714 0.3024342366411075 0.37438964387751317 -0.079834809978353
0.09692287579559859 0.13508678843014216 0.06411457104184748 -0.4571596252225069 -0.10371984410748666 -0.13948028950872982 -0.12078271311377126 0.13265246795893032 -0.26732273767726816 -0.1309334283866318 -0.162488577460547 0.4048942402005441 -0.14764662736325354 -0.06864434058787727 -0.17753518736931967 0.28618435045378915 -0.15091707058186513 0.3170365599239556 0.2309765949763397 0.0017972011083408077 -0.13656671540862708 0.24124969475958222 0.21686226707312412 -0.06578475965411956
-0.19303893941981332 0.0754598208425122 0.12414365916358971 -0.1284661977949811 -0.09605178604523255 -0.11980415125134705 -0.07418763899929756 0.048294059082129796 -0.38047904459996573 -0.06842836792249726 -0.2164400919343694 0.485553860072396 -0.07817182045492692 0.12600873739533566 -0.18256375092825092 0.18801294696404133 -0.05936625772727837 0.13208271149883258 0.18252569860149348 0.0808961613625062 -0.010367716379504253 0.17044562751790485 0.041726947392681873 -0.04899185647955997