 DBCSR| CPU Multiplication driver                                           XSMM
 DBCSR| Multrec recursion limit                                              512
 DBCSR| Multiplication stack size                                           1000
 DBCSR| Maximum elements for images                                    UNLIMITED
 DBCSR| Multiplicative factor virtual images                                   1
 DBCSR| Use multiplication densification                                       T
 DBCSR| Multiplication size stacks                                             3
 DBCSR| Use memory pool for CPU allocation                                     F
 DBCSR| Number of 3D layers                                               SINGLE
 DBCSR| Use MPI memory allocation                                              F
 DBCSR| Use RMA algorithm                                                      F
 DBCSR| Use Communication thread                                               T
 DBCSR| Communication thread load                                             87
 DBCSR| MPI: My node id                                                        0
 DBCSR| MPI: Number of nodes                                                   4
 DBCSR| OMP: Current number of threads                                         1
 DBCSR| OMP: Max number of threads                                             1
 DBCSR| Split modifier for TAS multiplication algorithm                  1.0E+00


  **** **** ******  **  PROGRAM STARTED AT               2023-04-15 13:51:37.787
 ***** ** ***  *** **   PROGRAM STARTED ON                            lujunbo-PC
 **    ****   ******    PROGRAM STARTED BY                               lujunbo
 ***** **    ** ** **   PROGRAM PROCESS ID                                  3062
  **** **  *******  **  PROGRAM STARTED IN /home/lujunbo/code/github/CP2K_kit/ex
                                           ample/deepff/active_learning/c2h6/mod
                                           el_devi/cp2k_md/sys_4/data/task_815

 CP2K| version string:                                          CP2K version 8.2
 CP2K| source code revision number:                                  git:310b7ab
 CP2K| cp2kflags: omp libint fftw3 libxc elpa parallel mpi3 scalapack xsmm plume
 CP2K|            d2 spglib mkl libvori libbqb
 CP2K| is freely available from                            https://www.cp2k.org/
 CP2K| Program compiled at            2021年 06月 10日 星期四 16:30:34 CST
 CP2K| Program compiled on                                            lujunbo-PC
 CP2K| Program compiled for                                                local
 CP2K| Data directory path                       /home/lujunbo/bin/cp2k-8.2/data
 CP2K| Input file name                                                  cp2k.inp

 GLOBAL| Force Environment number                                              1
 GLOBAL| Basis set file name            /home/lujunbo/bin/cp2k-8.2/data/BASIS_MO
 GLOBAL| Potential file name            /home/lujunbo/bin/cp2k-8.2/data/POTENTIA
 GLOBAL| MM Potential file name                                     MM_POTENTIAL
 GLOBAL| Coordinate file name                                      __STD_INPUT__
 GLOBAL| Method name                                                        CP2K
 GLOBAL| Project name                                                       test
 GLOBAL| Run type                                                   ENERGY_FORCE
 GLOBAL| FFT library                                                       FFTW3
 GLOBAL| Diagonalization library                                            ELPA
 GLOBAL| Minimum number of eigenvectors for ELPA usage                        16
 GLOBAL| Orthonormality check for eigenvectors                          DISABLED
 GLOBAL| Matrix multiplication library                                    SCALAP
 GLOBAL| All-to-all communication in single precision                          F
 GLOBAL| FFTs using library dependent lengths                                  F
 GLOBAL| Grid backend                                                       AUTO
 GLOBAL| Global print level                                                  LOW
 GLOBAL| MPI I/O enabled                                                       T
 GLOBAL| Total number of message passing processes                             4
 GLOBAL| Number of threads for this process                                    1
 GLOBAL| This output is from process                                           0
 GLOBAL| CPU model name                 Intel(R) Core(TM) i5-8265U CPU @ 1.60GHz
 GLOBAL| CPUID                                                              1002

 MEMORY| system memory details [Kb]
 MEMORY|                        rank 0           min           max       average
 MEMORY| MemTotal              7906088       7906088       7906088       7906088
 MEMORY| MemFree               5179184       5179184       5179184       5179184
 MEMORY| Buffers                123552        123552        123552        123552
 MEMORY| Cached                1238328       1238324       1238328       1238325
 MEMORY| Slab                   183016        183016        183016        183016
 MEMORY| SReclaimable           116404        116404        116404        116404
 MEMORY| MemLikelyFree         6657468       6657464       6657468       6657465


 GENERATE|  Preliminary Number of Bonds generated:                             0
 GENERATE|  Achieved consistency in connectivity generation.

 *******************************************************************************
 *******************************************************************************
 **                                                                           **
 **     #####                         ##              ##                      **
 **    ##   ##            ##          ##              ##                      **
 **   ##     ##                       ##            ######                    **
 **   ##     ##  ##   ##  ##   #####  ##  ##   ####   ##    #####    #####    **
 **   ##     ##  ##   ##  ##  ##      ## ##   ##      ##   ##   ##  ##   ##   **
 **   ##  ## ##  ##   ##  ##  ##      ####     ###    ##   ######   ######    **
 **    ##  ###   ##   ##  ##  ##      ## ##      ##   ##   ##       ##        **
 **     #######   #####   ##   #####  ##  ##  ####    ##    #####   ##        **
 **           ##                                                    ##        **
 **                                                                           **
 **                                                ... make the atoms dance   **
 **                                                                           **
 **            Copyright (C) by CP2K developers group (2000-2021)             **
 **                      J. Chem. Phys. 152, 194103 (2020)                    **
 **                                                                           **
 *******************************************************************************


 TOTAL NUMBERS AND MAXIMUM NUMBERS

  Total number of            - Atomic kinds:                                   2
                             - Atoms:                                          8
                             - Shell sets:                                     8
                             - Shells:                                        28
                             - Primitive Cartesian functions:                 40
                             - Cartesian basis functions:                     58
                             - Spherical basis functions:                     56

  Maximum angular momentum of- Orbital basis functions:                        2
                             - Local part of the GTH pseudopotential:          2
                             - Non-local part of the GTH pseudopotential:      0


 SCF PARAMETERS         Density guess:                                   RESTART
                        --------------------------------------------------------
                        max_scf:                                             100
                        max_scf_history:                                       0
                        max_diis:                                              4
                        --------------------------------------------------------
                        eps_scf:                                        1.00E-06
                        eps_scf_history:                                0.00E+00
                        eps_diis:                                       1.00E-01
                        eps_eigval:                                     1.00E-05
                        --------------------------------------------------------
                        level_shift [a.u.]:                                 0.00
                        --------------------------------------------------------
                        Outer loop SCF in use 
                        No variables optimised in outer loop
                        eps_scf                                         1.00E-06
                        max_scf                                                6
                        No outer loop optimization
                        step_size                                       5.00E-01

 Number of electrons:                                                         14
 Number of occupied orbitals:                                                  7
 Number of molecular orbitals:                                                 7

 Number of orbital functions:                                                 56
 Number of independent orbital functions:                                     56

 Extrapolation method: initial_guess


 SCF WAVEFUNCTION OPTIMIZATION

  ----------------------------------- OT ---------------------------------------
  Minimizer      : CG                  : conjugate gradient
  Preconditioner : FULL_ALL            : diagonalization, state selective
  Precond_solver : DEFAULT
  Line search    : 2PNT                : 2 energies, one gradient
  stepsize       :    0.15000000                  energy_gap     :    0.08000000
  eps_taylor     :   0.10000E-15                  max_taylor     :             4
  ----------------------------------- OT ---------------------------------------

  Step     Update method      Time    Convergence         Total energy    Change
  ------------------------------------------------------------------------------
     1 OT CG       0.15E+00    0.7     0.00060772       -14.9509049366 -1.50E+01
     2 OT LS       0.20E+00    0.5                      -14.9509186360
     3 OT CG       0.20E+00    0.9     0.00024050       -14.9509196430 -1.47E-05
     4 OT LS       0.13E+00    0.5                      -14.9509205269
     5 OT CG       0.13E+00    0.9     0.00003236       -14.9509210681 -1.43E-06
     6 OT LS       0.16E+00    0.5                      -14.9509210996
     7 OT CG       0.16E+00    0.9     0.00000423       -14.9509211013 -3.32E-08
     8 OT LS       0.19E+00    0.5                      -14.9509211020
     9 OT CG       0.19E+00    0.9     0.00000120       -14.9509211020 -6.55E-10
    10 OT LS       0.13E+00    0.5                      -14.9509211020
    11 OT CG       0.13E+00    0.9     0.00000025       -14.9509211020 -3.82E-11

  *** SCF run converged in    11 steps ***


  Electronic density on regular grids:        -14.0000000000        0.0000000000
  Core density on regular grids:               13.9999999989       -0.0000000011
  Total charge density on r-space grids:       -0.0000000010
  Total charge density g-space grids:          -0.0000000010

  Overlap energy of the core charge distribution:               0.00000175758836
  Self energy of the core charge distribution:                -35.13285960674677
  Core Hamiltonian energy:                                     11.43693927976998
  Hartree energy:                                              14.41260049372218
  Exchange-correlation energy:                                 -5.66760302633622

  Total energy:                                               -14.95092110200247

  outer SCF iter =    1 RMS gradient =   0.25E-06 energy =        -14.9509211020
  outer SCF loop converged in   1 iterations or   11 steps


 ENERGY| Total FORCE_EVAL ( QS ) energy [a.u.]:              -14.950921102004209

 -------------------------------------------------------------------------------
 -                                                                             -
 -                                DBCSR STATISTICS                             -
 -                                                                             -
 -------------------------------------------------------------------------------
 COUNTER                                    TOTAL       BLAS       SMM       ACC
 flops     7 x     7 x     7                25382       0.0%    100.0%      0.0%
 flops    13 x     5 x     7                70980       0.0%    100.0%      0.0%
 flops     5 x    13 x     7                70980       0.0%    100.0%      0.0%
 flops    13 x    13 x     7                92274       0.0%    100.0%      0.0%
 flops     5 x     5 x     7                95550       0.0%    100.0%      0.0%
 flops     7 x     7 x    28               164640       0.0%    100.0%      0.0%
 flops    28 x     7 x     7               225008       0.0%    100.0%      0.0%
 flops    13 x     7 x    13               227136       0.0%    100.0%      0.0%
 flops    13 x     7 x     5               262080       0.0%    100.0%      0.0%
 flops     5 x     7 x    13               262080       0.0%    100.0%      0.0%
 flops     5 x     7 x     5               302400       0.0%    100.0%      0.0%
 flops    28 x     7 x    28               614656       0.0%    100.0%      0.0%
 flops inhomo. stacks                           0       0.0%      0.0%      0.0%
 flops total                         2.413166E+06       0.0%    100.0%      0.0%
 flops max/rank                      1.230250E+06       0.0%    100.0%      0.0%
 matmuls inhomo. stacks                         0       0.0%      0.0%      0.0%
 matmuls total                               2239       0.0%    100.0%      0.0%
 number of processed stacks                   814       0.0%    100.0%      0.0%
 average stack size                                     0.0       2.8       0.0
 marketing flops                     2.659622E+06
 -------------------------------------------------------------------------------
 # multiplications                            160
 max memory usage/rank             344.145920E+06
 # max total images/rank                        1
 # max 3D layers                                1
 # MPI messages exchanged                    1280
 MPI messages size (bytes):
  total size                         1.515864E+06
  min size                           0.000000E+00
  max size                           6.272000E+03
  average size                       1.184269E+03
 MPI breakdown and total messages size (bytes):
             size <=      128                 683                        0
       128 < size <=     8192                 597                  1515864
      8192 < size <=    32768                   0                        0
     32768 < size <=   131072                   0                        0
    131072 < size <=  4194304                   0                        0
   4194304 < size <= 16777216                   0                        0
  16777216 < size                               0                        0
 -------------------------------------------------------------------------------
 -                                                                             -
 -                      DBCSR MESSAGE PASSING PERFORMANCE                      -
 -                                                                             -
 -------------------------------------------------------------------------------
 ROUTINE             CALLS      AVE VOLUME [Bytes]
 MP_Bcast               13                     12.
 MP_Allreduce          842                      9.
 MP_Alltoall           656                    433.
 MP_ISend             1276                    507.
 MP_IRecv             1276                    387.
 -------------------------------------------------------------------------------

 -------------------------------------------------------------------------------
 -                                                                             -
 -                                GRID STATISTICS                              -
 -                                                                             -
 -------------------------------------------------------------------------------
 LP    KERNEL             BACKEND                              COUNT     PERCENT
 2     collocate ortho    REF                                   8100      37.04%
 3     collocate ortho    REF                                   4572      20.91%
 2     integrate ortho    REF                                   4050      18.52%
 3     integrate ortho    REF                                   2961      13.54%
 4     collocate ortho    REF                                   1128       5.16%
 4     integrate ortho    REF                                    945       4.32%
 5     integrate ortho    REF                                     94       0.43%
 0     collocate general  REF                                      8       0.04%
 1     integrate general  REF                                      8       0.04%
 -------------------------------------------------------------------------------

 MEMORY| Estimated peak process memory [MiB]                                 329

 -------------------------------------------------------------------------------
 -                                                                             -
 -                         MESSAGE PASSING PERFORMANCE                         -
 -                                                                             -
 -------------------------------------------------------------------------------

 ROUTINE             CALLS      AVE VOLUME [Bytes]
 MP_Group                4
 MP_Bcast              123                2988127.
 MP_Allreduce          489                    595.
 MP_Sync                 7
 MP_Alltoall           160               20946136.
 MP_ISendRecv          234                1312850.
 MP_Wait               234
 MP_Recv                 1                   1792.
 -------------------------------------------------------------------------------


 -------------------------------------------------------------------------------
 -                                                                             -
 -                           R E F E R E N C E S                               -
 -                                                                             -
 -------------------------------------------------------------------------------
 
 CP2K version 8.2, the CP2K developers group (2021).
 CP2K is freely available from https://www.cp2k.org/ .

 Kuehne,Thomas D.; Iannuzzi,Marcella; Del Ben,Mauro;
 Rybkin,Vladimir V.; Seewald,Patrick; Stein,Frederick; Laino,Teodoro;
 Khaliullin,Rustam Z.; Schuett,Ole; Schiffmann,Florian; Golze,Dorothea;
 Wilhelm,Jan; Chulkov,Sergey; Bani-Hashemian,Mohammad Hossein;
 Weber,Valery; Borstnik,Urban; Taillefumier,Mathieu;
 Jakobovits,Alice Shoshana; Lazzaro,Alfio; Pabst,Hans; Mueller,Tiziano;
 Schade,Robert; Guidon,Manuel; Andermatt,Samuel; Holmberg,Nico;
 Schenter,Gregory K.; Hehn,Anna; Bussy,Augustin; Belleflamme,Fabian;
 Tabacchi,Gloria; Gloess,Andreas; Lass,Michael; Bethune,Iain;
 Mundy,Christopher J.; Plessl,Christian; Watkins,Matt;
 VandeVondele,Joost; Krack,Matthias; Hutter,Juerg. 
 The Journal of Chemical Physics, 152 (19), (2020). 
 CP2K: An electronic structure and molecular dynamics software package -
 Quickstep: Efficient and accurate electronic structure calculations.
 https://doi.org/10.1063/5.0007045

 Schuett, Ole; Messmer, Peter; Hutter, Juerg; VandeVondele, Joost. 
 Electronic Structure Calculations on Graphics Processing Units, John
 Wiley & Sons, Ltd, 173-190 (2016). 
 GPU-Accelerated Sparse Matrix-Matrix Multiplication for
 Linear Scaling Density Functional Theory.
 https://doi.org/10.1002/9781118670712.ch8

 Heinecke, A; Henry, G; Hutchinson, M; Pabst, H. 
 Proceedings of Intl. Supercomputing Conference, 981-991 (2016). 
 LIBXSMM: Accelerating Small Matrix Multiplications
 by Runtime Code Generation.
 https://doi.org/10.1109/SC.2016.83

 Borstnik, U; VandeVondele, J; Weber, V; Hutter, J. 
 PARALLEL COMPUTING, 40 (5-6), 47-58 (2014). 
 Sparse matrix multiplication: The distributed block-compressed sparse
 row library.
 https://doi.org/10.1016/j.parco.2014.03.012

 Hutter, J; Iannuzzi, M; Schiffmann, F; VandeVondele, J. 
 WIREs Comput Mol Sci., 4 (1), 15-25 (2014). 
 CP2K: atomistic simulations of condensed matter systems.
 https://doi.org/10.1002/wcms.1159

 Marek, A; Blum, V; Johanni, R; Havu, V; Lang, B; Auckenthaler, T;
 Heinecke, A; Bungartz, H; Lederer, H. 
 Journal of Physics: Condensed Matter, 26 (21), (2014). 
 The ELPA library: scalable parallel eigenvalue solutions for
 electronic structure
 theory and computational science.
 https://doi.org/10.1088/0953-8984/26/21/213201

 VandeVondele, J; Hutter, J. 
 JOURNAL OF CHEMICAL PHYSICS, 127 (11), 114105 (2007). 
 Gaussian basis sets for accurate calculations on molecular systems in
 gas and condensed phases.
 https://doi.org/10.1063/1.2770708

 Krack, M. 
 THEORETICAL CHEMISTRY ACCOUNTS, 114 (1-3), 145-152 (2005). 
 Pseudopotentials for H to Kr optimized for gradient-corrected
 exchange-correlation functionals.
 https://doi.org/10.1007/s00214-005-0655-y

 VandeVondele, J; Krack, M; Mohamed, F; Parrinello, M; Chassaing, T;
 Hutter, J. COMPUTER PHYSICS COMMUNICATIONS, 167 (2), 103-128 (2005). 
 QUICKSTEP: Fast and accurate density functional calculations using a
 mixed Gaussian and plane waves approach.
 https://doi.org/10.1016/j.cpc.2004.12.014

 Frigo, M; Johnson, SG. 
 PROCEEDINGS OF THE IEEE, 93 (2), 216-231 (2005). 
 The design and implementation of FFTW3.
 https://doi.org/10.1109/JPROC.2004.840301

 VandeVondele, J; Hutter, J. 
 JOURNAL OF CHEMICAL PHYSICS, 118 (10), 4365-4369 (2003). 
 An efficient orbital transformation method for electronic structure
 calculations.
 https://doi.org/10.1063/1.1543154

 Hartwigsen, C; Goedecker, S; Hutter, J. 
 PHYSICAL REVIEW B, 58 (7), 3641-3662 (1998). 
 Relativistic separable dual-space Gaussian pseudopotentials from H to Rn.
 https://doi.org/10.1103/PhysRevB.58.3641

 Lippert, G; Hutter, J; Parrinello, M. 
 MOLECULAR PHYSICS, 92 (3), 477-487 (1997). 
 A hybrid Gaussian and plane wave density functional scheme.
 https://doi.org/10.1080/002689797170220

 Perdew, JP; Burke, K; Ernzerhof, M. 
 PHYSICAL REVIEW LETTERS, 77 (18), 3865-3868 (1996). 
 Generalized gradient approximation made simple.
 https://doi.org/10.1103/PhysRevLett.77.3865

 Goedecker, S; Teter, M; Hutter, J. 
 PHYSICAL REVIEW B, 54 (3), 1703-1710 (1996). 
 Separable dual-space Gaussian pseudopotentials.
 https://doi.org/10.1103/PhysRevB.54.1703


 -------------------------------------------------------------------------------
 -                                                                             -
 -                                T I M I N G                                  -
 -                                                                             -
 -------------------------------------------------------------------------------
 SUBROUTINE                       CALLS  ASD         SELF TIME        TOTAL TIME
                                MAXIMUM       AVERAGE  MAXIMUM  AVERAGE  MAXIMUM
 CP2K                                 1  1.0    0.009    0.015    9.158    9.159
 qs_forces                            1  2.0    0.000    0.000    8.932    8.932
 qs_energies                          1  3.0    0.000    0.000    8.183    8.183
 scf_env_do_scf                       1  4.0    0.000    0.000    7.943    7.943
 scf_env_do_scf_inner_loop           11  5.0    0.000    0.001    7.204    7.204
 rebuild_ks_matrix                   12  6.8    0.000    0.000    7.005    7.005
 qs_ks_build_kohn_sham_matrix        12  7.8    0.001    0.001    7.005    7.005
 qs_ks_update_qs_env                 12  6.0    0.000    0.000    6.262    6.262
 qs_vxc_create                       12  8.8    0.000    0.000    5.683    5.686
 pw_transfer                        184 10.2    0.009    0.011    4.849    5.052
 fft_wrap_pw1pw2                    160 11.3    0.001    0.002    4.755    4.960
 fft_wrap_pw1pw2_200                103 12.5    0.469    0.473    4.594    4.797
 xc_rho_set_and_dset_create          12 10.8    0.039    0.040    4.036    4.260
 xc_vxc_pw_create                     7  9.6    0.065    0.067    3.911    3.913
 fft3d_ps                           160 13.3    2.008    2.054    3.284    3.495
 xc_functional_eval                  12 11.8    0.000    0.000    2.007    2.233
 pbe_lda_eval                        12 12.8    2.007    2.233    2.007    2.233
 xc_exc_calc                          5 10.0    0.014    0.014    1.772    1.772
 qs_rho_update_rho                   12  6.0    0.000    0.000    1.761    1.761
 calculate_rho_elec                  12  7.0    0.034    0.035    1.761    1.761
 density_rs2pw                       12  8.0    0.001    0.001    1.497    1.511
 x_to_yz                             83 14.9    0.561    0.570    0.757    0.765
 qs_ks_update_qs_env_forces           1  3.0    0.000    0.000    0.744    0.744
 init_scf_loop                        1  5.0    0.000    0.000    0.738    0.738
 yz_to_x                             77 13.6    0.249    0.251    0.516    0.690
 mp_alltoall_z22v                   160 15.3    0.463    0.618    0.463    0.618
 sum_up_and_integrate                 7  8.6    0.012    0.013    0.608    0.616
 integrate_v_rspace                   7  9.6    0.000    0.000    0.596    0.605
 pw_scatter_p                        83 13.9    0.542    0.545    0.542    0.545
 potential_pw2rs                      7 10.6    0.001    0.001    0.531    0.531
 rs_pw_transfer                      78  9.9    0.001    0.001    0.436    0.452
 pw_gather_p                         77 12.6    0.438    0.441    0.438    0.441
 pw_derive                           57 11.3    0.374    0.380    0.374    0.380
 pw_copy                            112 11.2    0.295    0.298    0.295    0.298
 pw_poisson_solve                    12  8.8    0.099    0.101    0.280    0.280
 rs_pw_transfer_RS2PW_200            13  9.8    0.171    0.173    0.236    0.253
 grid_collocate_task_list            12  8.0    0.225    0.239    0.225    0.239
 mp_sum_d                           538  3.7    0.102    0.227    0.102    0.227
 -------------------------------------------------------------------------------

 The number of warnings for this run is : 0
 
 -------------------------------------------------------------------------------
  **** **** ******  **  PROGRAM ENDED AT                 2023-04-15 13:51:47.195
 ***** ** ***  *** **   PROGRAM RAN ON                                lujunbo-PC
 **    ****   ******    PROGRAM RAN BY                                   lujunbo
 ***** **    ** ** **   PROGRAM PROCESS ID                                  3062
  **** **  *******  **  PROGRAM STOPPED IN /home/lujunbo/code/github/CP2K_kit/ex
                                           ample/deepff/active_learning/c2h6/mod
                                           el_devi/cp2k_md/sys_4/data/task_815
