       8
 i =     1000, time =      500.000, E =       -14.9523092635
  C        -2.7130590728        1.1761695073        0.3854559528
  C        -1.3723112598        1.3906144866       -0.3856438063
  H        -3.5282909500        0.9190049688       -0.3249568241
  H        -2.6237150144        0.3453796235        1.1086126876
  H        -2.9964299164        2.0832992514        0.9329656487
  H        -0.5407581399        1.5424284830        0.3253606749
  H        -1.1411379976        0.4930299403       -0.9869773273
  H        -1.4439304534        2.2745215078       -1.0423180951
