-2.7700694500 1.2735381400 0.0000000000 -1.2698194500 1.2735381400 0.0000000000 -3.1651834500 0.2286071500 0.0000570400 -3.1654054500 1.7959295400 0.9048934800 -3.1654644500 1.7958757500 -0.9048915100 -0.8743194500 2.3182171500 -0.0000029800 -0.8747974500 0.7509467500 0.9049494800 -0.8747794500 0.7509635300 -0.9049495200
-2.7699566492 1.2739429034 -0.0000878134 -1.2703157516 1.2737053211 -0.0005520014 -3.1590864646 0.2256615223 0.0027761721 -3.1597405401 1.7940552179 0.9055651502 -3.1636673038 1.7941266688 -0.8994474707 -0.8745235308 2.3161310963 0.0031588733 -0.8797534674 0.7485464190 0.9023702050 -0.8786137401 0.7552064646 -0.9067428519
-2.7700782741 1.2743189173 -0.0001536525 -1.2705690707 1.2738729222 -0.0011038187 -3.1530089511 0.2243589074 0.0054640562 -3.1541591931 1.7914851623 0.9050271291 -3.1620111911 1.7917841018 -0.8930247080 -0.8747196909 2.3126494454 0.0063096217 -0.8846414277 0.7468549470 0.8985535362 -0.8823919509 0.7601255995 -0.9072891509
-2.7704060701 1.2746392253 -0.0001761789 -1.2705986099 1.2740422966 -0.0016564766 -3.1470324107 0.2246830439 0.0080955088 -3.1488035847 1.7883397895 0.9034925296 -3.1607056120 1.7890695404 -0.8860487337 -0.8748273657 2.3080059959 0.0094463299 -0.8893343381 0.7457527231 0.8936806568 -0.8859962255 0.7655861290 -0.9067707697
-2.7709039596 1.2748798627 -0.0001358689 -1.2704318347 1.2742148333 -0.0022110460 -3.1412663712 0.2265069862 0.0106460199 -3.1438337398 1.7847818138 0.9012476352 -3.1599732151 1.7862367401 -0.8789969408 -0.8747425671 2.3025203608 0.0125684664 -0.8936851186 0.7450749854 0.8880074794 -0.8892881698 0.7714125990 -0.9054469856
-2.7715304387 1.2750219756 -0.0000167230 -1.2701026331 1.2743919491 -0.0027686496 -3.1358445262 0.2295987862 0.0130924342 -3.1394191934 1.7810061411 0.8986336016 -3.1600336710 1.7835506450 -0.8723606973 -0.8743444702 2.2965783385 0.0156785570 -0.8975341553 0.7446211389 0.8818477722 -0.8921163832 0.7773995721 -0.9036375822
-2.7722415792 1.2750540893 0.0001919377 -1.2696488914 1.2745750697 -0.0033304579 -3.1309192449 0.2336333562 0.0154135286 -3.1357287644 1.7772263103 0.8960217556 -3.1610844228 1.7812618623 -0.8666000494 -0.8735043763 2.2906053130 0.0187824499 -0.9007187937 0.7441679138 0.8755503531 -0.8943260219 0.7833254959 -0.9017001798
-2.7729944598 1.2749741859 0.0004939390 -1.2691095295 1.2747655882 -0.0038976731 -3.1266542969 0.2382115753 0.0175904052 -3.1329189163 1.7736578567 0.8937832685 -3.1632802547 1.7795793313 -0.8620958061 -0.8720969059 2.2850332472 0.0218890556 -0.9030845110 0.7434862537 0.8694708141 -0.8957701554 0.7889694046 -0.9000016538
-2.7737507278 1.2747910919 0.0008854237 -1.2685211612 1.2749648034 -0.0044714979 -3.1232156858 0.2428873894 0.0196066570 -3.1311214144 1.7704996606 0.8922552546 -3.1667145941 1.7786453631 -0.8591062692 -0.8700128202 2.2802633409 0.0250094571 -0.9044971105 0.7423609806 0.8639395982 -0.8963222424 0.7941293701 -0.8988853579
-2.7744798757 1.2745246251 0.0013551148 -1.2679146926 1.2751738372 -0.0050530887 -3.1207606285 0.2472028077 0.0214482716 -3.1304314827 1.7679151632 0.8917068607 -3.1714059465 1.7785177543 -0.8577367623 -0.8671722968 2.2766279721 0.0281554048 -0.9048548478 0.7406114383 0.8592295747 -0.8958885980 0.7986408299 -0.8986373526
-2.7751618129 1.2742041056 0.0018858202 -1.2673122756 1.2753935343 -0.0056434924 -3.1194250525 0.2507291183 0.0231033229 -3.1308979669 1.7660159520 0.8923101206 -3.1772923277 1.7791628719 -0.8579285340 -0.8635369446 2.2743569604 0.0313373309 -0.9040990299 0.7381104675 0.8555274221 -0.8944192985 0.8023923873 -0.8994561306
-2.7757883900 1.2738652022 0.0024569643 -1.2667250821 1.2756243509 -0.0062435714 -3.1193105717 0.2531104363 0.0245615375 -3.1325170104 1.7648503742 0.8941204618 -3.1842349690 1.7804612352 -0.8594694209 -0.8591186241 2.2735535461 0.0345621723 -0.9022215076 0.7347987596 0.8529134107 -0.8919158691 0.8053365934 -0.9014306834
-2.7763636963 1.2735455575 0.0030476049 -1.2661522818 1.2758662453 -0.0068539262 -3.1204724736 0.2541036713 0.0258138778 -3.1352303721 1.7643992178 0.8970705137 -3.1920305000 1.7822241833 -0.8620235932 -0.8539833730 2.2741844124 0.0378313898 -0.8992677687 0.7306920613 0.8513532435 -0.8884343790 0.8074938330 -0.9045308548
-2.7769031393 1.2732800114 0.0036392633 -1.2655814239 1.2761185864 -0.0074748271 -3.1229106242 0.2536080562 0.0268523131 -3.1389287982 1.7645792621 0.9009784574 -3.2004291504 1.7842178795 -0.8651737374 -0.8482495255 2.2760856056 0.0411395758 -0.8953349674 0.7258798538 0.8507034752 -0.8840832470 0.8089486248 -0.9086118759
-2.7774314754 1.2730963786 0.0042180146 -1.2649901632 1.2763800968 -0.0081061661 -3.1265651145 0.2516782757 0.0276698930 -3.1434599896 1.7652539810 0.9055693233 -3.2091556867 1.7861899881 -0.8684675662 -0.8420801273 2.2789831343 0.0444739347 -0.8905651047 0.7205157582 0.8507295121 -0.8790159868 0.8098390766 -0.9134321357
-2.7779800658 1.2730125456 0.0047755715 -1.2643490411 1.2766488429 -0.0087474380 -3.1313177810 0.2485181595 0.0282611623 -3.1486399832 1.7662493968 0.9105053355 -3.2179300967 1.7878948845 -0.8714616019 -0.8356708449 2.2825245584 0.0478147448 -0.8851343799 0.7148014185 0.8511327860 -0.8734199786 0.8103414256 -0.9186809526
-2.7785836906 1.2730352454 0.0053094070 -1.2636248780 1.2769222771 -0.0093977518 -3.1369996287 0.2444560315 0.0286228524 -3.1542662932 1.7673724179 0.9154202908 -3.2264859028 1.7891147111 -0.8737577104 -0.8292352180 2.2863160976 0.0511366990 -0.8792402360 0.7089665664 0.8515825710 -0.8675028931 0.8106522073 -0.9240115867
-2.7792772481 1.2731604096 0.0058221669 -1.2627843106 1.2771973275 -0.0100558686 -3.1434030048 0.2399065832 0.0287547014 -3.1601312867 1.7684291039 0.9199532936 -3.2345850066 1.7896751386 -0.8750305409 -0.8229892384 2.2899601150 0.0544108839 -0.8730877558 0.7032481424 0.8517478626 -0.8614785241 0.8109705171 -0.9290747915
-2.7800926331 1.2733746694 0.0063206945 -1.2617970844 1.2774705236 -0.0107202571 -3.1502966196 0.2353261727 0.0286602247 -3.1660344771 1.7692409227 0.9237783841 -3.2420289084 1.7894559481 -0.8750461244 -0.8171369930 2.2930888555 0.0576071069 -0.8668767895 0.6978708336 0.8513258347 -0.8555534886 0.8114822272 -0.9335491623
-2.7810560062 1.2736574620 0.0068149405 -1.2606388463 1.2777381453 -0.0113891575 -3.1574412565 0.2311684297 0.0283472825 -3.1717929918 1.7696578906 0.9266282503 -3.2486665479 1.7883971640 -0.8736728554 -0.8118584889 2.2953919102 0.0606962804 -0.8607907874 0.6930305976 0.8500648072 -0.8499157999 0.8123472520 -0.9371659773
-2.7821855902 1.2739832642 0.0073169358 -1.2592933149 1.2779963789 -0.0120606440 -3.1646044248 0.2278452519 0.0278283599 -3.1772498444 1.7695682693 0.9283113191 -3.2543992715 1.7865016317 -0.8708864467 -0.8073001770 2.2966366378 0.0636526610 -0.8549878048 0.6888818465 0.8477810670 -0.8447257945 0.8136901860 -0.9397277547
-2.7834900520 1.2743236545 0.0078398879 -1.2577538133 1.2782414690 -0.0127326816 -3.1715728423 0.2256959246 0.0271205107 -3.1822800234 1.7689049994 0.9287228601 -3.2591832631 1.7838347621 -0.8667699468 -0.8035682691 2.2966817733 0.0664558085 -0.8495937720 0.6855283276 0.8443697669 -0.8401094896 0.8155941654 -0.9411206900
-2.7849674917 1.2746490967 0.0083973789 -1.2560241977 1.2784698593 -0.0134031728 -3.1781623174 0.2249649683 0.0262450086 -3.1867945409 1.7676492507 0.9278506343 -3.2630295256 1.7805217350 -0.8615093030 -0.8007246634 2.2954848978 0.0690921957 -0.8446979154 0.6830174045 0.8398106020 -0.8361542528 0.8180975827 -0.9413215800
-2.7866050528 1.2749304915 0.0090025854 -1.2541192197 1.2786783163 -0.0140699973 -3.1842250598 0.2257879915 0.0252267228 -3.1907425990 1.7658314375 0.9257757569 -3.2660011247 1.7767420126 -0.8553841422 -0.7987852862 2.2931044992 0.0715564282 -0.8403501803 0.6813374558 0.8341689200 -0.8329065900 0.8211932942 -0.9403998115
-2.7883791822 1.2751406247 0.0096674274 -1.2520643333 1.2788640348 -0.0147310464 -3.1896547078 0.2281843566 0.0240932670 -3.1941118884 1.7635298505 0.9226689385 -3.2682071744 1.7727206845 -0.8487528877 -0.7977207517 2.2896969364 0.0738520208 -0.8365605362 0.6804182190 0.8275926047 -0.8303719912 0.8248301495 -0.9385147159
-2.7902565982 1.2752556578 0.0104015704 -1.2498949144 1.2790247213 -0.0153842557 -3.1943893759 0.2320557160 0.0228739384 -3.1969268895 1.7608668025 0.9187818871 -3.2697929047 1.7687159975 -0.8420310939 -0.7974594112 2.2855081495 0.0759916506 -0.8333002918 0.6801342594 0.8203046411 -0.8285169217 0.8289168632 -0.9359081168
-2.7921960140 1.2752567491 0.0112112744 -1.2476548349 1.2791586537 -0.0160276403 -3.1984127747 0.2371900028 0.0215984838 -3.1992449090 1.7580019844 0.9144333274 -3.2709254482 1.7650027187 -0.8356623142 -0.7978929892 2.2808595521 0.0779967626 -0.8305056258 0.6803119078 0.8125909947 -0.8272731548 0.8333284310 -0.9328915248
-2.7941506285 1.2751317848 0.0120981824 -1.2453943320 1.2792647131 -0.0166593346 -3.2017532550 0.2432712409 0.0202957362 -3.2011495443 1.7551226850 0.9099890648 -3.2717756838 1.7618515939 -0.8300821303 -0.7988850126 2.2761275152 0.0798963930 -0.8280836429 0.6807401275 0.8047833822 -0.8265447007 0.8379152902 -0.9298274057
-2.7960712899 1.2748770417 0.0130582609 -1.2431671687 1.2793423816 -0.0172776352 -3.2044803536 0.2498959995 0.0189922108 -3.2027414518 1.7524307234 0.9058360696 -3.2724976168 1.7595063074 -0.8256778746 -0.8002820189 2.2717162720 0.0817250956 -0.8259210899 0.6811855349 0.7972367470 -0.8262174006 0.8425152409 -0.9271043595
-2.7979101024 1.2744984614 0.0140811916 -1.2410271915 1.2793917063 -0.0178810439 -3.2066983304 0.2565974442 0.0177107882 -3.2041266802 1.7501264207 0.9023514665 -3.2732079342 1.7581604724 -0.8227487473 -0.8019271048 2.2680250811 0.0835199611 -0.8238956383 0.6814112425 0.7903022443 -0.8261708656 0.8469676640 -0.9251068512
-2.7996241151 1.2740121027 0.0151505272 -1.2390245281 1.2794132245 -0.0184683049 -3.2085362379 0.2628775535 0.0164696667 -3.2054034453 1.7483906515 0.8998688294 -3.2739693163 1.7579381264 -0.8214725650 -0.8036747414 2.2654119440 0.0853168792 -0.8218889801 0.6811983830 0.7842974420 -0.8262918789 0.8511290037 -0.9241815598
-2.8011786411 1.2734433874 0.0162447920 -1.2372018424 1.2794078603 -0.0190384268 -3.2101345272 0.2682468396 0.0152817862 -3.2066488613 1.7473668132 0.8986454987 -3.2747808836 1.7588811674 -0.8218853445 -0.8054051814 2.2641576312 0.0871464085 -0.8198004468 0.6803681291 0.7794768060 -0.8264877666 0.8548877596 -0.9246036955
-2.8025497743 1.2728249448 0.0173394683 -1.2355911554 1.2793768034 -0.0195906856 -3.2116289157 0.2722689970 0.0141548868 -3.2079076216 1.7471451761 0.8988355706 -3.2755779367 1.7609461087 -0.8238778334 -0.8070363810 2.2644350714 0.0890298183 -0.8175593436 0.6788013065 0.7760063570 -0.8266978065 0.8581768570 -0.9265479176
-2.8037257761 1.2721932028 0.0184095334 -1.2342117373 1.2793213920 -0.0201246043 -3.2131332343 0.2746056849 0.0130922480 -3.2091846415 1.7477521492 0.9004731211 -3.2762410289 1.7640106601 -0.8272095572 -0.8085314644 2.2662889966 0.0909759598 -0.8151339874 0.6764524406 0.7739464338 -0.8269007409 0.8609813170 -0.9300683980
-2.8047071709 1.2715842446 0.0194320378 -1.2330694323 1.2792430206 -0.0206399155 -3.2147238411 0.2750548315 0.0120940151 -3.2104431202 1.7491464249 0.9034687515 -3.2766123088 1.7678886068 -0.8315373181 -0.8099004045 2.2696295919 0.0929795508 -0.8125358562 0.6733557144 0.7732456398 -0.8271170043 0.8633397701 -0.9350917028
-2.8055055736 1.2710296968 0.0203882192 -1.2321575177 1.2791430904 -0.0211365137 -3.2164284956 0.2735755755 0.0111588303 -3.2116084100 1.7512227476 0.9076201296 -3.2765157469 1.7723500401 -0.8364524885 -0.8111956951 2.2742413969 0.0950212140 -0.8098180929 0.6696216767 0.7737470834 -0.8274052735 0.8653394942 -0.9414237429
-2.8061414364 1.2705534313 0.0212648258 -1.2314589052 1.2790230076 -0.0216144095 -3.2182220461 0.2702946133 0.0102854087 -3.2125769101 1.7538226111 0.9126345651 -3.2757776911 1.7771435639 -0.8415208558 -0.8125029583 2.2798058298 0.0970692810 -0.8070687198 0.6654252976 0.7752057763 -0.8278540589 0.8671059315 -0.9487697075
-2.8066410386 1.2701696179 0.0220545804 -1.2309492619 1.2788842209 -0.0220736919 -3.2200298815 0.2654923499 0.0094737044 -3.2132282683 1.7567499666 0.9181596047 -3.2742449766 1.7820175819 -0.8463197934 -0.8139282958 2.2859334093 0.0990830083 -0.8043998875 0.6609875059 0.7773141170 -0.8285699845 0.8687885378 -0.9567632793
-2.8070331153 1.2698822775 0.0227559296 -1.2306005238 1.2787282793 -0.0225145016 -3.2217383298 0.2595715891 0.0087254508 -3.2134388108 1.7597894179 0.9238168598 -3.2717990330 1.7867387390 -0.8504695022 -0.8155845143 2.2922005442 0.1010166673 -0.8019350315 0.6565532549 0.7797314162 -0.8296647482 0.8705452664 -0.9650007175
-2.8073455231 1.2696861096 0.0233723332 -1.2303843089 1.2785568889 -0.0229370130 -3.2232097358 0.2530146875 0.0080440349 -3.2130943159 1.7627244524 0.9292347103 -3.2683655577 1.7911066598 -0.8536569716 -0.8175781296 2.2981860552 0.1028239002 -0.7997958495 0.6523691822 0.7821134368 -0.8312426340 0.8725277648 -0.9730751171
-2.8076022955 1.2695681507 0.0239113505 -1.2302748727 1.2783719552 -0.0233414207 -3.2242993375 0.2463366037 0.0074338546 -3.2121008039 1.7653538127 0.9340767594 -3.2639200845 1.7949648325 -0.8556527213 -0.8199984281 2.3035036179 0.1044618388 -0.7980905212 0.6486632496 0.7841389638 -0.8333898717 0.8748687235 -0.9806074138
-2.8078213009 1.2695097729 0.0243837076 -1.2302514102 1.2781755964 -0.0237279261 -3.2248712888 0.2400402671 0.0068993486 -3.2103926985 1.7675049233 0.9380644474 -3.2584901418 1.7982080153 -0.8563212040 -0.8229092385 2.3078281521 0.1058946417 -0.7969041254 0.6456279329 0.7855315097 -0.8361665355 0.8776721701 -0.9872719399
-2.8080126146 1.2694886594 0.0248024387 -1.2302996589 1.2779701308 -0.0240967206 -3.2248121017 0.2345786209 0.0064439379 -3.2079382550 1.7690439879 0.9409934298 -3.2521546671 1.8007865685 -0.8556257889 -0.8263434761 2.3109153221 0.1070962918 -0.7962915421 0.6434074812 0.7860755803 -0.8396011387 0.8810068214 -0.9928158113
-2.8081776079 1.2694805621 0.0251821074 -1.2304128440 1.2777580424 -0.0244479671 -3.2240407283 0.2303252258 0.0060690306 -3.2047424880 1.7698828526 0.9427441466 -3.2450411381 1.8027080199 -0.8536289677 -0.8303001919 2.3126145209 0.1080526135 -0.7962727904 0.6420892272 0.7856276448 -0.8436876557 0.8849022338 -0.9970722056
-2.8083087074 1.2694608162 0.0255380590 -1.2305920526 1.2775419311 -0.0247817808 -3.2225152848 0.2275534170 0.0057731833 -3.2008479358 1.7699829374 0.9432872183 -3.2373206274 1.8040358783 -0.8504879331 -0.8347437708 2.3128759276 0.1087625422 -0.7968305653 0.6416985815 0.7841223445 -0.8483846819 0.8893473925 -0.9999681568
-2.8083897607 1.2694057034 0.0258856219 -1.2308461124 1.2773244575 -0.0250982131 -3.2202368680 0.2264229539 0.0055514518 -3.1963335395 1.7693565172 0.9426842099 -3.2292006794 1.8048853750 -0.8464450647 -0.8396049532 2.3117522151 0.1092386895 -0.7979097583 0.6421973787 0.7815744437 -0.8536164118 0.8942913913 -1.0015273114
-2.8083969605 1.2692938066 0.0262391836 -1.2311910209 1.2771082888 -0.0253972443 -3.2172509966 0.2269729278 0.0053949280 -3.1913117683 1.7680654344 0.9410838652 -3.2209157693 1.8054156204 -0.8418125872 -0.8447835391 2.3093951152 0.1095071910 -0.7994188724 0.6434854373 0.7780767344 -0.8592752875 0.8996460444 -1.0018678849
-2.8083002982 1.2691074811 0.0266111058 -1.2316489284 1.2768960531 -0.0256787900 -3.2136470524 0.2291200962 0.0052904578 -3.1859239569 1.7662171153 0.9387135393 -3.2127152390 1.8058176090 -0.8369506820 -0.8501527489 2.3060466029 0.1096067818 -0.8012334222 0.6454054827 0.7737937550 -0.8652263051 0.9052904330 -1.0011954976
-2.8080655175 1.2688344906 0.0270105189 -1.2322466535 1.2766903090 -0.0259427268 -3.2095558320 0.2326625551 0.0052205418 -3.1803337639 1.7639575862 0.9358653153 -3.2048489055 1.8062979225 -0.8322389268 -0.8555653485 2.3020241345 0.1095870007 -0.8032015426 0.6477517886 0.7689509315 -0.8713130790 0.9110775054 -0.9997904076
-2.8076565176 1.2684697202 0.0274421416 -1.2330137020 1.2764935341 -0.0261889421 -3.2051450475 0.2372894664 0.0051634521 -3.1747186764 1.7614611964 0.9328762709 -3.1975511615 1.8070587355 -0.8280424451 -0.8608615840 2.2976994439 0.1095054256 -0.8051520423 0.6502829031 0.7638187069 -0.8773657040 0.9168428163 -0.9979884510
-2.8070381048 1.2680167170 0.0279053698 -1.2339797997 1.2763081352 -0.0264174108 -3.2006123668 0.2425981557 0.0050936234 -3.1692597064 1.7589170095 0.9301029944 -3.1910250407 1.8082758421 -0.8246757507 -0.8658788287 2.2934709061 0.1094239293 -0.8069049876 0.6527385385 0.7586916116 -0.8832103364 0.9224152835 -0.9961556368
-2.8061789284 1.2674886619 0.0283939336 -1.2351720230 1.2761364758 -0.0266282977 -3.1961755362 0.2481199715 0.0049823983 -3.1641297367 1.7565123625 0.9278913906 -3.1854282896 1.8100775099 -0.8223690323 -0.8704625361 2.2897305154 0.1094040671 -0.8082845549 0.6548600852 0.7538629869 -0.8886800712 0.9276295125 -0.9946571917
-2.8050543793 1.2669083179 0.0288963703 -1.2366117194 1.2759809133 -0.0268220782 -3.1920593367 0.2533555900 0.0047991940 -3.1594814746 1.7544148627 0.9265442333 -3.1808635309 1.8125276307 -0.8212424069 -0.8744776642 2.2868279947 0.1095019441 -0.8091333367 0.6564132848 0.7495972337 -0.8936263246 0.9323387215 -0.9938233343
-2.8036491989 1.2663065952 0.0293973919 -1.2383115224 1.2758438299 -0.0269996666 -3.1884795991 0.2578188809 0.0045131294 -3.1554362808 1.7527548450 0.9262902180 -3.1773740767 1.8156163240 -0.8212929088 -0.8778193973 2.2850360163 0.1097631003 -0.8093267227 0.6572106772 0.7461026272 -0.8979295782 0.9364268650 -0.9939154491
-2.8019595427 1.2657196476 0.0298799789 -1.2402728450 1.2757276421 -0.0271625333 -3.1856253231 0.2610859266 0.0040950707 -3.1520753715 1.7516108196 0.9272590854 -3.1749459038 1.8192598634 -0.8223966692 -0.8804217557 2.2845213937 0.1102181167 -0.8087855099 0.6571307541 0.7435085124 -0.9015081320 0.9398183325 -0.9950974017
-2.7999942724 1.2651848173 0.0303278003 -1.2424842376 1.2756347765 -0.0273127924 -3.1836408902 0.2628431196 0.0035199249 -3.1494347265 1.7510003639 0.9294669803 -3.1735151060 1.8233098657 -0.8243256270 -0.8822627954 2.2853269325 0.1108796339 -0.8074848046 0.6561307348 0.7418506832 -0.9043236116 0.9424837404 -0.9974166750
-2.7977753054 1.2647361265 0.0307274613 -1.2449208973 1.2755676061 -0.0274532435 -3.1826110625 0.2629262714 0.0027688970 -3.1475044725 1.7508781268 0.9328147600 -3.1729791828 1.8275697700 -0.8267751959 -0.8833655412 2.2873672227 0.1117412961 -0.8054576613 0.6542506904 0.7410676297 -0.9063823928 0.9444408809 -1.0007987511
-2.7953369375 1.2644002094 0.0310701508 -1.2475454379 1.2755283545 -0.0275873561 -3.1825515907 0.2613428567 0.0018313266 -3.1462327524 1.7511413053 0.9370995572 -3.1732101291 1.8318155366 -0.8293977248 -0.8837944965 2.2904391018 0.1127787999 -0.8027927514 0.6516082475 0.7410084003 -0.9077327546 0.9457507308 -1.0050557674
-2.7927241701 1.2641934826 0.0313524664 -1.2503098107 1.2755189793 -0.0277191965 -3.1834074374 0.2582722924 0.0007057777 -3.1455333059 1.7516415171 0.9420374460 -3.1740674915 1.8358172727 -0.8318365501 -0.8836483192 2.2942448315 0.1139528388 -0.7996264132 0.6483848737 0.7414506047 -0.9084583022 0.9465093202 -1.0099079038
-2.7899902060 1.2641209823 0.0315764302 -1.2531580945 1.2755410533 -0.0278533011 -3.1850590913 0.2540438893 -0.0005998254 -3.1452954742 1.7522009186 0.9472932544 -3.1754101108 1.8393591223 -0.8337566534 -0.8830498256 2.2984239758 0.1152134206 -0.7961303748 0.6448061671 0.7421253490 -0.9086687469 0.9468368812 -1.0150136186
-2.7871933946 1.2641768373 0.0317488833 -1.2560297687 1.2755956591 -0.0279945142 -3.1873357309 0.2490971249 -0.0020690184 -3.1453951906 1.7526300029 0.9525129914 -3.1771058904 1.8422557639 -0.8348695250 -0.8821347336 2.3025889993 0.1165048838 -0.7924969912 0.6411192746 0.7427451116 -0.9084893692 0.9468659240 -1.0200039875
-2.7843939661 1.2643459604 0.0318805177 -1.2588630844 1.2756833097 -0.0281478035 -3.1900326956 0.2439321390 -0.0036783766 -3.1457056841 1.7527447207 0.9573548199 -3.1790394496 1.8443648408 -0.8349514893 -0.8810404652 2.3063599474 0.1177709473 -0.7889239142 0.6375704692 0.7430308009 -0.9080504245 0.9467297323 -1.0245165446
-2.7816508664 1.2646063859 0.0319847768 -1.2615982336 1.2758039019 -0.0283180753 -3.1929303710 0.2390588724 -0.0053995560 -3.1461070144 1.7523812832 0.9615158122 -3.1811178038 1.8455953763 -0.8338557715 -0.8798960023 2.3093949056 0.1189592932 -0.7855997405 0.6343851197 0.7427353233 -0.9074774402 0.9465523137 -1.0282252273
-2.7790189421 1.2649317321 0.0320767805 -1.2641801143 1.2759567069 -0.0285100008 -3.1958120103 0.2349515193 -0.0072014890 -3.1464939382 1.7514077553 0.9647530212 -3.1832742740 1.8459125342 -0.8315189488 -0.8788133907 2.3114143110 0.1200253707 -0.7826916934 0.6317514117 0.7416621347 -0.9068830056 0.9464403670 -1.0308644238
-2.7765466143 1.2652934456 0.0321723461 -1.2665606013 1.2761403941 -0.0287278645 -3.1984789018 0.2320120778 -0.0090524916 -3.1467819717 1.7497322406 0.9668985662 -3.1854708052 1.8453392061 -0.8279626244 -0.8778811282 2.3122185939 0.1209353031 -0.7803358232 0.6298082477 0.7396784201 -0.9063602828 0.9464773938 -1.0322465483
-2.7742740970 1.2656626963 0.0322871065 -1.2687003061 1.2763530866 -0.0289754396 -3.2007622483 0.2305440228 -0.0109221541 -3.1469116967 1.7473078861 0.9678691029 -3.1876987264 1.8439547492 -0.8232908417 -0.8771594311 2.3116994596 0.1216679118 -0.7786298288 0.6286371897 0.7367232206 -0.9059782521 0.9467198195 -1.0322733752
-2.7722321639 1.2660119550 0.0324356847 -1.2705698415 1.2765924423 -0.0292558922 -3.2025318095 0.2307352965 -0.0127829744 -3.1468514256 1.7441350796 0.9676702526 -3.1899778165 1.8418909667 -0.8176833228 -0.8766772776 2.3098454604 0.1222159187 -0.7776284000 0.6282580612 0.7328110899 -0.9057786104 0.9471948860 -1.0309417378
-2.7704414559 1.2663163736 0.0326308748 -1.2721505994 1.2768557557 -0.0295717137 -3.2037017240 0.2326490040 -0.0146117649 -3.1465982960 1.7402611489 0.9663964488 -3.1923534154 1.8393252070 -0.8113844983 -0.8764311509 2.3067424139 0.1225863931 -0.7773409832 0.6286278873 0.7280317759 -0.9057742487 0.9479001228 -1.0283441385
-2.7689123423 1.2665551027 0.0328828013 -1.2734350192 1.2771400762 -0.0299246851 -3.2042339346 0.2362203727 -0.0163908625 -3.1461777490 1.7357776917 0.9642262603 -3.1948912779 1.8364703414 -0.8046879264 -0.8763855079 2.3025688690 0.1228004528 -0.7777319920 0.6296430654 0.7225461226 -0.9059493231 0.9488043234 -1.0246644725
-2.7676453609 1.2667126300 0.0331980741 -1.2744262925 1.2774423353 -0.0303158699 -3.2041394345 0.2412591929 -0.0181091624 -3.1456412377 1.7308154782 0.9614129312 -3.1976699731 1.8335615099 -0.7979160180 -0.8764751208 2.2975864186 0.1228921733 -0.7787236400 0.6311449453 0.7165780654 -0.9062610451 0.9498500919 -1.0201686812
-2.7666322899 1.2667801225 0.0335790213 -1.2751374088 1.2777594766 -0.0307456418 -3.2034772317 0.2474578703 -0.0197629390 -3.1450619346 1.7255367389 0.9582696422 -3.2007709315 1.8308398992 -0.7913956427 -0.8766095208 2.2921244149 0.1229066080 -0.7802016838 0.6329291857 0.7104023723 -0.9066433931 0.9509581185 -1.0151898490
-2.7658578709 1.2667566321 0.0340231482 -1.2755894720 1.2780885763 -0.0312137452 -3.2023506040 0.2544060151 -0.0213563265 -3.1445282661 1.7201246791 0.9551491642 -3.2042667492 1.8285344733 -0.7854311351 -0.8766797326 2.2865586661 0.1228968325 -0.7820243311 0.6347592418 0.7043278246 -0.9070129257 0.9520333578 -1.0101074431
-2.7653021525 1.2666498967 0.0345230071 -1.2758092739 1.2784269436 -0.0317193888 -3.2008999884 0.2616129464 -0.0229012691 -3.1441352898 1.7147703891 0.9524181000 -3.2082089524 1.8268433040 -0.7802772961 -0.8765673077 2.2812843497 0.1229199933 -0.7840342505 0.6363839458 0.6986759944 -0.9072766897 0.9529731030 -1.0053207641
-2.7649433182 1.2664763937 0.0350666455 -1.2758262239 1.2787721819 -0.0322613619 -3.1992919133 0.2685392850 -0.0244167070 -3.1439743441 1.7096577416 0.9504269448 -3.2126169525 1.8259167526 -0.7761158162 -0.8761553146 2.2766841581 0.1230324785 -0.7860732271 0.6375586165 0.6937563968 -0.9073419458 0.9536766821 -1.0012176702
-2.7647607703 1.2662603301 0.0356387016 -1.2756688975 1.2791222046 -0.0328381650 -3.1977037691 0.2746377378 -0.0259267944 -3.1441218558 1.7049475331 0.9494784732 -3.2174700669 1.8258448971 -0.7730386649 -0.8753404044 2.2730942608 0.1232845690 -0.7879981367 0.6380679906 0.6898400156 -0.9071268878 0.9540560336 -0.9981410368
-2.7647381225 1.2660314105 0.0362220614 -1.2753616200 1.2794751988 -0.0334481328 -3.1963050976 0.2794011587 -0.0274580650 -3.1446287211 1.7007627153 0.9497981158 -3.2227041848 1.8266511584 -0.7710411603 -0.8740446136 2.2707718319 0.1237151322 -0.7896963473 0.6377484850 0.6871340336 -0.9065711475 0.9540460025 -0.9963565824
-2.7648656922 1.2658215153 0.0367998219 -1.2749216013 1.2798295465 -0.0340895364 -3.1952372679 0.2824132171 -0.0290357281 -3.1455118940 1.6971768159 0.9515106004 -3.2282138311 1.8282930404 -0.7700257801 -0.8722252174 2.2698687105 0.1243470838 -0.7910982256 0.6365066397 0.6857612898 -0.9056445393 0.9536129055 -0.9960265043
-2.7651420871 1.2656607582 0.0373572012 -1.2743571122 1.2801837219 -0.0347606438 -3.1945945768 0.2833946487 -0.0306795805 -3.1467497196 1.6942074425 0.9546266867 -3.2338593695 1.8306696163 -0.7698158025 -0.8698810063 2.2704153782 0.1251843445 -0.7921845794 0.6343306915 0.6857477350 -0.9043525470 0.9527599403 -0.9971931047
-2.7655745672 1.2655736433 0.0378830474 -1.2736670385 1.2805361920 -0.0354597334 -3.1944103881 0.2822367421 -0.0324002726 -3.1482819621 1.6918159845 0.9590423268 -3.2394781066 1.8336343019 -0.7701762108 -0.8670538312 2.2723181428 0.1262108398 -0.7929876353 0.6312931614 0.6870200692 -0.9027375041 0.9515284338 -0.9997752412
-2.7661780537 1.2655760817 0.0383707194 -1.2728418869 1.2808853426 -0.0361850593 -3.1946514119 0.2790151660 -0.0341967315 -3.1500146042 1.6899135183 0.9645503636 -3.2448975850 1.8370107850 -0.7708384410 -0.8638251091 2.2753700094 0.1273917317 -0.7935853977 0.6275439316 0.6894139897 -0.9008751921 0.9499946485 -1.0035782502
-2.7669729001 1.2656738088 0.0388182893 -1.2718660250 1.2812294450 -0.0369347790 -3.1952215696 0.2739810204 -0.0360553386 -3.1518285931 1.6883717920 0.9708626433 -3.2499492588 1.8406099383 -0.7715256356 -0.8603079029 2.2792733010 0.1286766758 -0.7940905163 0.6232950499 0.6926915366 -0.8988674569 0.9482626872 -1.0083154893
-2.7679817788 1.2658623558 0.0392281740 -1.2707207282 1.2815666670 -0.0377068596 -3.1959746224 0.2675308984 -0.0379510403 -3.1535910654 1.6870373898 0.9776388561 -3.2544810926 1.8442459187 -0.7719757813 -0.8566359300 2.2836702270 0.1300045574 -0.7946357165 0.6187998562 0.6965645975 -0.8968321182 0.9464546847 -1.0136379062
-2.7692261844 1.2661283314 0.0396063896 -1.2693875117 1.2818951193 -0.0384989822 -3.1967327890 0.2601622372 -0.0398501046 -3.1551673470 1.6857469493 0.9845178960 -3.2583681019 1.8477502448 -0.7719610862 -0.8529511928 2.2881767791 0.1313089898 -0.7953581516 0.6143296109 0.7007210109 -0.8948917488 0.9446997694 -1.0191671225
-2.7707230699 1.2664515266 0.0399616263 -1.2678512770 1.2822129265 -0.0393084611 -3.1973076554 0.2524223043 -0.0417139152 -3.1564322537 1.6843415674 0.9911479760 -3.2615203839 1.8509831970 -0.7713028435 -0.8493918575 2.2924157858 0.1325238683 -0.7963847738 0.6101506334 0.7048500905 -0.8931628089 0.9431232160 -1.0245278851
-2.7724820295 1.2668073117 0.0403043002 -1.2661029307 1.2825183097 -0.0401321915 -3.1975199498 0.2448585995 -0.0435031013 -3.1572796263 1.6826791325 0.9972129419 -3.2638884845 1.8538423388 -0.7698816990 -0.8460815325 2.2960459736 0.1335884266 -0.7978201169 0.6065040974 0.7086651792 -0.8917462240 0.9418368237 -1.0293768282
-2.7745032645 1.2671689235 0.0406456662 -1.2641413047 1.2828096694 -0.0409666283 -3.1972158838 0.2379760811 -0.0451814289 -3.1576295792 1.6806439157 1.0024532126 -3.2654661780 1.8562681690 -0.7676436002 -0.8431207227 2.2987853162 0.1344514569 -0.7997371949 0.6035897357 0.7119219247 -0.8907200339 0.9409311446 -1.0334257700
-2.7767764024 1.2675094335 0.0409970167 -1.2619743473 1.2830856646 -0.0418077996 -3.1962790583 0.2322037921 -0.0467190979 -3.1574333384 1.6781533282 1.0066811027 -3.2662907834 1.8582469932 -0.7646016636 -0.8405806506 2.3004281629 0.1350745483 -0.8021715814 0.6015538164 0.7144319201 -0.8901342893 0.9404697627 -1.0364590160
-2.7792801275 1.2678033654 0.0413689480 -1.2596196381 1.2833452826 -0.0426513495 -3.1946380038 0.2278710290 -0.0480953312 -3.1566758077 1.6751620251 1.0097907345 -3.2664411011 1.8598110300 -0.7608342100 -0.8384994133 2.3008563813 0.1354343355 -0.8051184055 0.6004812198 0.7160718923 -0.8900081118 0.9404855642 -1.0383448280
-2.7819825230 1.2680280513 0.0417706565 -1.2571043155 1.2835878995 -0.0434926102 -3.1922700140 0.2251918500 -0.0493002750 -3.1553761123 1.6716636657 1.0117630040 -3.2660329723 1.8610356736 -0.7564789001 -0.8368802771 2.3000450327 0.1355238089 -0.8085318651 0.6003912424 0.7167888525 -0.8903287074 0.9409788468 -1.0390415562
-2.7848420243 1.2681648551 0.0422092368 -1.2544644978 1.2838133285 -0.0443266962 -3.1892020739 0.2242563230 -0.0503363177 -3.1535863163 1.6676905628 1.0126658739 -3.2652124388 1.8620337262 -0.7517228872 -0.8356919334 2.2980630096 0.1353527244 -0.8123269269 0.6012368267 0.7166015335 -0.8910521436 0.9419171381 -1.0385988440
-2.7878088981 1.2682003743 0.0426889818 -1.2517442429 1.2840218551 -0.0451486204 -3.1855095301 0.2250272820 -0.0512188965 -3.1513884320 1.6633113256 1.0126500706 -3.2641465334 1.8629464380 -0.7467888825 -0.8348706473 2.2950687306 0.1349470998 -0.8163830290 0.6029071481 0.7155981753 -0.8921057811 0.9432367032 -1.0371540120
-2.7908271858 1.2681276552 0.0432107304 -1.2489940625 1.2842142555 -0.0459534248 -3.1813128415 0.2273421755 -0.0519768065 -3.1488897317 1.6586264427 1.0119398088 -3.2630119443 1.8639314036 -0.7419173421 -0.8343243323 2.2913006593 0.1343477351 -0.8205497490 0.6052337558 0.7139304229 -0.8933923573 0.9448458427 -1.0349233794