-406.8306526393248
-406.8334934969149
-406.8390518193538
-406.84459661229266
-406.84748128565303
-406.84602365889623
-406.840134176637
-406.83144288784456
-406.8228277882058
-406.8174582937229
-406.81768824896443
-406.82420880675363
-406.83578087223617
-406.84963920553673
-406.86240297452736
-406.8711511296698
-406.8742871627462
-406.871927486778
-406.8657354547473
-406.85830950890994
-406.8523499954331
-406.84985510881967
-406.8515572733986
-406.8567317275666
-406.8634180788753
-406.86900670119013
-406.8710463984956
-406.8680567000781
-406.86008917423123
-406.8488229701455
-406.83711186809705
-406.8280927338308
-406.8241472464399
-406.82609157056606
-406.83290214728436
-406.84208647097745
-406.8505566046898
-406.85567170266614
-406.85607100795517
-406.85202732012226
-406.84525158758095
-406.8382708145412
-406.8336123997778
-406.8330461580911
-406.8370802348633
-406.84482388177065
-406.8542395593704
-406.8627207381835
-406.86785491134
-406.86816951847555
-406.86363837135445
-406.8557655193543
-406.8471751140464
-406.84079628402895
-406.8388923905769
-406.8422721560186
-406.84998611530614
-406.8596431415539
-406.86823837960355
-406.8731756212539
-406.87310020218234
-406.8682613514538
-406.8603273690798
-406.8517782760949
-406.8451113754834
-406.84210693938036
-406.84334261648473
-406.8480579819534
-406.8543896900174
-406.8599119954686
-406.86236174928086
-406.86036131256003
-406.85393138228477
-406.8446062233535
-406.8350559419223
-406.8282773249743
-406.82659357706
-406.83082412002364
-406.8399647259074
-406.8515314307474
-406.86243978880856
-406.870062271587
-406.8730522285127
-406.87165976213566
-406.8674929046948
-406.8628836527387
-406.86010318265164
-406.86067062436035
-406.86492380175304
-406.8719338215882
-406.8797643381173
-406.88600846634245
-406.8884791266608
-406.8858834463604
-406.87829045800095
-406.8672228752483
-406.85528646294154
-406.84539596029913
-406.8398249791245
-406.83942480035006
-406.8433369728437
-406.849340680329
-406.8547011732862
-406.8571679940783
-406.85572962481785
-406.850873562889
-406.8443245828094
-406.8384193642068
-406.83535700867327
-406.83654969451226
-406.8422277089442
-406.8513726142266
-406.8619787463319
-406.87158237296
-406.8779421686144
-406.87970623364936
-406.87687193672394
-406.87086161687233
-406.864124442862
-406.8593346923544
-406.8584403847817
-406.86193126246707
-406.86864606599875
-406.87622035469525
-406.8819854782092
-406.88393697253497
-406.8813939761949
-406.87514519210197
-406.8671017301673
-406.8596389618853
-406.85486537766093
-406.8540247853599
-406.8571666199034
-406.8631415159755
-406.8699141736304
-406.8751213386029
-406.8767577876898
-406.8738151241493
-406.8666791809143
-406.85711405839436
-406.8477701072813
-406.8413185820518
-406.83950843453835
-406.84252395111685
-406.8489322129671
-406.85625460588324
-406.86191257096755
-406.86414747185614
-406.8625687816526
-406.85818295964816
-406.85296960408584
-406.8492037499243
-406.84875240014253
-406.852530896713
-406.86023419458036
-406.8703896408616
-406.8807171283962
-406.8887259121433
-406.89241949831154
-406.8909253375508
-406.8848411632823
-406.8761279012974
-406.86750783013883
-406.8615270863404
-406.8596260582471
-406.86161196136777
-406.86577626365965
-406.8696060727367
-406.8707696260681
-406.86796462763965
-406.86132803506746
-406.8523258834259
-406.8432369574023
-406.83644528715354
-406.83376060658
-406.83593306006384
-406.8424580288183
-406.85170220939244
-406.861324152003
-406.8689059455991
-406.87265417494734
-406.8719777788577
-406.8677369282218
-406.8620164749156
-406.8574278791209
-406.8561500597464
-406.8590801733967
-406.8654664620544
-406.8731967318455
-406.8796137258288
-406.88249690256305
-406.88081573156677
-406.8750081637363
-406.8667584476754
-406.85842068373984
-406.8523064681035
-406.85004246736094
-406.8521453304517
-406.8578953489265
-406.86552869448934
-406.8727119909746
-406.87720431561434
-406.87754950562424
-406.87359373505143
-406.8666227635521
-406.85899891748335
-406.8533566588098
-406.8516275168649
-406.8542922270039
-406.86019776670076
-406.86702147019065
-406.8721729933255
-406.87373883703464
-406.8711089901207
-406.86510539420203
-406.85764306674446
-406.85109735475214
-406.84759477617166
-406.8484186035391
-406.85366027526743
-406.8621819282929
-406.8719016958284
-406.88034481680006
-406.88534930322214
-406.8857442628531
-406.88178186902945
-406.8751264788333
-406.86832705878237
-406.86390443338126
-406.86338926474093
-406.86672046058356
-406.87227789593135
-406.8775307270483
-406.88000560513115
-406.87816754418014
-406.87190037607627
-406.8624791255851
-406.85212008645095
-406.84330338039035
-406.83807952123385
-406.8375318377109
-406.841505997737
-406.8486581453512
-406.8568164284411
-406.8635897092367
-406.8670894605543
-406.8665656686265
-406.8627291192897
-406.8575839826667
-406.8537512075489
-406.85348810067836
-406.85778892792536
-406.8659597418576
-406.87585824736794
-406.88468178076477
-406.8899534720918
-406.8903167876045
-406.8858856586459
-406.87810329266057
-406.8692288576491
-406.86164970627834
-406.85721760315215
-406.8567640710175
-406.8598939788114
-406.865100123357
-406.8701843962778
-406.8729069550976
-406.8717115263512
-406.8663124258826
-406.85791369756265
-406.8489106044072
-406.84210106716375
-406.8396723069342
-406.842367787706
-406.84920034850137
-406.8578339464388
-406.86545202369416
-406.86973678534014
-406.8695894275331
-406.86538126593274
-406.8587281887042
-406.8519274135264
-406.8472618258422
-406.84635740651925
-406.84974450814997
-406.85671016798716
-406.86547598059656
-406.87367608214123
-406.8790414677052
-406.88012170522154
-406.87681914663926
-406.87051172201416
-406.86364718784284
-406.85889207198466
-406.85813861597705
-406.86177852224836
-406.86855646435396
-406.87605374483417
-406.8815747414178
-406.883066336145
-406.8797421499549
-406.87224800150506
-406.86238502317747
-406.85253333485304
-406.8449667333725
-406.84123901052317
-406.84178116741396
-406.8457968574541
-406.8514865183583
-406.8565664129674
-406.8589732381004
-406.8575677918933
-406.8526027728623
-406.84574470955806
-406.8395690615016
-406.8366614135698
-406.83865686788624
-406.8456138608977
-406.8559840839106
-406.86717377502725
-406.87644206216635
-406.88177739819906
-406.88245546234657
-406.8791438940751
-406.87358741384696
-406.86801887353334
-406.8644847297477
-406.864260652165
-406.8674927849647
-406.8731466302455
-406.8792841959703
-406.8836211354448
-406.8842370923298
-406.8802422543731
-406.87216654966977
-406.86189018144086
-406.85207883943525
-406.84529266860716
-406.843101980775
-406.8455621238935
-406.8512492677447
-406.85781705089056
-406.8628311157198
-406.8645639475284
-406.8624935448974
-406.8573886811225
-406.8510029176444
-406.8455097202105
-406.8428513612085
-406.8441726126728
-406.84947868286224
-406.85760018704576
-406.86648806992315
-406.8737809003918
-406.87751687101155
-406.87677970918065
-406.87205837897665
-406.865149498413
-406.85858494253733
-406.8547604124688
-406.85508676947995
-406.8594958735444
-406.86648851074756
-406.87368777215175
-406.8786674581186
-406.87974592417385
-406.87648462621297
-406.8697633790256
-406.86145399384225
-406.8538270266277
-406.84887915348975
-406.8477640962866
-406.8504685296037
-406.8558123964053
-406.8617791698793
-406.8661067840125
-406.8669891539512
-406.8636853681355
-406.8568231768643
-406.84825818154667
-406.84049692615287
-406.83586510779605
-406.83571965206477
-406.839998538773
-406.8472719539193
-406.85526223120416
-406.86162742015495
-406.8647224375125
-406.8640856367075
-406.86051668956185
-406.85575741852534
-406.85190792473327
-406.850766279287
-406.85327894037636
-406.8592421301111
-406.86732742682733
-406.8754290775852
-406.8812528606793
-406.88299793488943
-406.87993340516635
-406.872677312787
-406.8630551388797
-406.85354953309854
-406.846505958906
-406.8433674332668
-406.8442181128278
-406.8478094114041
-406.8520544825256
-406.85480482416835
-406.8546143009432
-406.8512221706487
-406.8456098662665
-406.8396481541099
-406.8354821048472
-406.83485954920155
-406.83859738108
-406.84632168613564
-406.8565408914105
-406.86703106492456
-406.8754389417118
-406.87994603124844
-406.8798095797641
-406.8756018154499
-406.86904998089614
-406.8624947639674
-406.85812270548087
-406.8572261611324
-406.8597602212541
-406.86437335355356
-406.86891238925483
-406.8712126736566
-406.86987185448623
-406.86472567566716
-406.85687907993133
-406.8483226262671
-406.8412961707561
-406.8376151834585
-406.8381508939725
-406.842590730574
-406.84952669190676
-406.85684385479493
-406.86231421099325
-406.86424886147245
-406.86202913637254
-406.85634731778913
-406.84904651982725
-406.8425632851722
-406.83912025326305
-406.83993984926025
-406.84478392185343
-406.8520260030912
-406.85924911527337
-406.86413349608944
-406.86527891575463
-406.86265490296137
-406.8575510623345
-406.85209855136173
-406.8485648620061
-406.84865557931766
-406.853013830748
-406.8610298391175
-406.8709909716278
-406.8805295276736
-406.8872628158984
-406.8894700319251
-406.88662190345326
-406.8795899267525
-406.87042566057045
-406.86172550903035
-406.8557559327838
-406.8536453062852
-406.85497189390185
-406.85794331987506
-406.86011114742365
-406.85932500510177
-406.85453736075533
-406.84616621117283
-406.8359337049736
-406.826298545794
-406.81971068881023
-406.8179200545801
-406.82151282257115
-406.8297663400624
-406.8408387909316
-406.85224550371913
-406.86151881135856
-406.86689937815356
-406.86787256064355
-406.8653644819512
-406.8614751697411
-406.8587649839375
-406.85929803045696
-406.86379974030297
-406.87129910245403
-406.8794441853017
-406.8853755540442
-406.8867849350174
-406.88272616119315
-406.87389661952284
-406.8623552267121
-406.85084616918886
-406.84198736983853
-406.83756292127475
-406.83808376348856
-406.84269498282777
-406.8494327527674
-406.85577197117345
-406.8593483851228
-406.85868571989744
-406.85371973486235
-406.8459185739741
-406.83788049173
-406.83246463993356
-406.83172615835053
-406.83607922601226
-406.8440742925007
-406.85292046849
-406.8595343205087
-406.86165988061475
-406.8586137267391
-406.8514253879845
-406.84241176130234
-406.8344076633556
-406.8299258668003
-406.8304756836956
-406.8361830864221
-406.84577290871516
-406.85690580695257
-406.8668030144799
-406.8730321193
-406.8742642725301
-406.87076906551357
-406.8644269436529
-406.85815439585855
-406.85485811494254
-406.85628276694433
-406.8622467185979
-406.87063975973865
-406.8782109164048
-406.88179591826696
-406.879454337869
-406.8710904074667
-406.858402321498
-406.8442849766402
-406.8319502060006
-406.82404811536856
-406.8220051635816
-406.82570567776816
-406.83356419481134
-406.8429693334421
-406.85101595461845
-406.8553717352551
-406.85505286953793
-406.8508441800367
-406.8451411148048
-406.8411573981407
-406.84170794158
-406.8480345202982
-406.85919750616273
-406.8723448087243
-406.88374895003597
-406.89014603072854
-406.8898177825262
-406.8830464963251
-406.87188214989135
-406.8594121413952
-406.8488269838246
-406.8425568986604
-406.841671720507
-406.845649045217
-406.8525425132528
-406.85952033113625
-406.86367867685624
-406.8629567016986
-406.8569016572165
-406.84699662369513
-406.8363305530746
-406.8286011295577
-406.82674940032854
-406.83177483951624
-406.8422784663385
-406.8549678258
-406.86589295967934
-406.8718554364758
-406.8714233441905
-406.86524144840024
-406.8556513376665
-406.8458608096484
-406.8389708464389
-406.837125789441
-406.840964308882
-406.84946345809294
-406.8601992714903
-406.8699845667593
-406.87577200088685
-406.87562131240645
-406.86944522352553
-406.85922470938317
-406.8484904225445
-406.8411305949276
-406.8399256748504
-406.8454280724532
-406.85571429120307
-406.86713221235954
-406.87568647550734
-406.8784439220425
-406.87442266455326
-406.8647337438425
-406.8520656419141
-406.8397818817347
-406.83094611409973
-406.8275180892688
-406.8298796292168
-406.8367658426976
-406.8456121193691
-406.85326225707695
-406.85690637567046
-406.8550220036652
-406.84802157856404
-406.8383030328197
-406.8295584750222
-406.82548506963695
-406.8283685484176
-406.83815339741983
-406.85243213027417
-406.86735039595646
-406.87899869413087
-406.8846963198072
-406.8837152160833
-406.87729417576725
-406.8680672390471
-406.85917497785806
-406.85334065579497
-406.85213470440635
-406.85557055251013
-406.86210312412527
-406.86903752352464
-406.8732858736179
-406.87232243552444
-406.8650902456247
-406.8525451037765
-406.8375565891857
-406.82407384101083
-406.8157785295552
-406.8147415309278
-406.82066855945453
-406.83107166742485
-406.84226417764086
-406.850713581721
-406.8541962796644
-406.85237437955425
-406.8467036849845
-406.8398200974022
-406.83466550754446
-406.83361612229515
-406.83781764431785
-406.8468576606001
-406.85883753220793
-406.87084181786946
-406.87972903134676
-406.88307626013676
-406.8800171345945
-406.8716661295995
-406.8608868269685
-406.851378559914
-406.84636401072214
-406.84740009232587
-406.85382902122217
-406.8630990879858
-406.87177804730015
-406.8767969965728
-406.8764368239749
-406.8707578870771
-406.86143023558293
-406.85111748845503
-406.8426526446357
-406.83823984254406
-406.83886357100033
-406.84402509159753
-406.8518587292724
-406.8596255276251
-406.86449500476624
-406.864438979248
-406.8589736680402
-406.8494624186181
-406.83878340082117
-406.83039530943114
-406.82711563290155
-406.8301026727669
-406.83847187673535
-406.8496889098505
-406.8605335524564
-406.8682139982036
-406.8712149512495
-406.86964042166653
-406.8650200157641
-406.8597229933598
-406.8561937340175
-406.85622420260404
-406.8604351452079
-406.868077680055
-406.8772032489281
-406.88517911778524
-406.8894453811325
-406.88832397551346
-406.881626677065
-406.87081897935496
-406.85861377844077
-406.84808637159017
-406.8416250148877
-406.84013291947105
-406.8427993575329
-406.8475055201115
-406.85166377059164
-406.8531425487571
-406.8509483996369
-406.84547616313193
-406.8383088968729
-406.83168388818683
-406.82780814085163
-406.82821419456377
-406.83331367592695
-406.8422525230052
-406.85310793043453
-406.86339454647054
-406.8707672913314
-406.87373338931565
-406.8721440458553
-406.8672678529446
-406.86137207669225
-406.856928231854
-406.8557285907853
-406.85825556506256
-406.86354605945587
-406.8695848859532
-406.87405153665225
-406.87512864485944
-406.872091873469
-406.86551134723214
-406.8570412706637
-406.848899747065
-406.8432131746528
-406.84140814560067
-406.8438113869944
-406.84955330736136
-406.8568058132803
-406.8633054046982
-406.86703289897184
-406.86685678417444
-406.86292407524934
-406.856637391141
-406.8501895340061
-406.84580122760235
-406.84493896959754
-406.8478146060573
-406.8533458885441
-406.8595782968261
-406.8643886354667
-406.866205700114
-406.86450528250595
-406.8599398816948
-406.8540965363369
-406.8489875908544
-406.84644054273923
-406.8475601578491
-406.85240172699497
-406.85993663537676
-406.8683221852235
-406.87541415214116
-406.8793920891073
-406.8793178374042
-406.87544338533087
-406.8691438792185
-406.86246984106094
-406.8574558116065
-406.8554253307967
-406.85654606973685
-406.8597997648371
-406.8633747474677
-406.86532991805143
-406.86428510975685
-406.8598959053774
-406.85296876325407
-406.8452029445112
-406.8386694177765
-406.83520029559253
-406.83586641666363
-406.8406792832418
-406.84858841618
-406.8577723398658
-406.8661503548804
-406.8719812972896
-406.87437839707405
-406.87357434421926
-406.87083147482247
-406.8680023997616
-406.8668704687793
-406.8684974374201
-406.8728165752073
-406.8786302574357
-406.88401957269065
-406.8870136793523
-406.8862698452901
-406.88152209011116
-406.87365925190034
-406.86443515332746
-406.85593348162115
-406.84996749183506
-406.84758787536475
-406.84882271435845
-406.85270515841523
-406.8575748859011
-406.8615757049199
-406.86322090518786
-406.8618683034883
-406.8579544057929
-406.85288989650024
-406.8486174126307
-406.84695159973944
-406.84892095289644
-406.85435814113896
-406.8619118825195
-406.86949500947344
-406.87499997310977
-406.8770119039191
-406.8752555342635
-406.870638331141
-406.8649111321327
-406.86009258925986
-406.85785413728564
-406.8590395195892
-406.8634388085075
-406.8698608121066
-406.87647818255726
-406.88135806261045
-406.8830423574736
-406.8810148318202
-406.8759024522611
-406.86931700076366
-406.8633498980319
-406.8598625659899
-406.85981587397634
-406.86289984079093
-406.86762577788215
-406.8718592841655
-406.87358676349487
-406.8716172008102
-406.8659665909629
-406.8578187135061
-406.84911961504656
-406.84197305665066
-406.8380342550968
-406.83806573594677
-406.8417554363294
-406.8478275124167
-406.8544129421449
-406.8595920086425
-406.86197548640814
-406.8611639504228
-406.8579296135011
-406.8540218927898
-406.85160833011815
-406.8525059166626
-406.857474875902
-406.8658636502978
-406.87577418051865
-406.88469879060085
-406.89037435056593
-406.891517859992
-406.88818432124924
-406.88166395393984
-406.8740088202219
-406.86738077474536
-406.8634262939921
-406.8628387376284
-406.8652004816618
-406.8691286326801
-406.8726874163738
-406.8739741202652
-406.87173829418947
-406.86585448006144
-406.8574808705699
-406.8487930430655
-406.84231968070054
-406.8400748667047
-406.84280838627
-406.8496917860938
-406.8585937236509
-406.86683971175216
-406.87214077504694
-406.873325419922
-406.8706309051543
-406.8655099077499
-406.86008649390993
-406.856469031588
-406.8561301791094
-406.8595020097115
-406.86586505440516
-406.8735446702052
-406.8803702866553
-406.88429941456224
-406.8840572849476
-406.87960668896494
-406.8722675365575
-406.8643812366915
-406.85856486869943
-406.85678670000425
-406.8596196771776
-406.8660001834163
-406.87361484020073
-406.879754223646
-406.88227256375114
-406.880279612882
-406.87434760467204
-406.86623067744324
-406.85825637324064
-406.85261260161417
-406.8507324038352
-406.85291801946545
-406.85827376675724
-406.86495574247544
-406.8706871646904
-406.8734302272881
-406.87204859648415
-406.86675752793064
-406.85917262135223
-406.85186554300293
-406.8475138059779
-406.84792867345726
-406.8533529825518
-406.86234283192675
-406.87229554795607
-406.88039350612917
-406.8845653677435
-406.884104349757
-406.8797717967576
-406.8734295415612
-406.8673861680416
-406.86368313408093
-406.86351333232454
-406.86689833051526
-406.8726828067654
-406.87884432395026
-406.88305810470143
-406.88339705786217
-406.8789878095773
-406.87040981538166
-406.85965181926423
-406.8495577509803
-406.84289325585513
-406.8413626100709
-406.8449843745126
-406.8521074385997
-406.8600628308905
-406.86615939994437
-406.8686076108711
-406.86704000114304
-406.86250670976494
-406.8570293194239
-406.85291404388227
-406.85204564971036
-406.8553410952369
-406.86247700581833
-406.8719422788863
-406.88140846625674
-406.88835083314933
-406.89078700848097
-406.8879360146504
-406.88057037468195
-406.8708770239579
-406.86178989932796
-406.855979411716
-406.8548790949195
-406.85816647499183
-406.8639326026058
-406.86945747953285
-406.8722410571599
-406.87086757616544
-406.8654112256664
-406.85731425526654
-406.8488593218331
-406.84245031166984
-406.8399181862776
-406.8420181595194
-406.8482195386605
-406.85682782456865
-406.8654204911426
-406.8715152071012
-406.87332015724036
-406.87035339801946
-406.86370015208036
-406.8557451597969
-406.84939305407954
-406.8470231820058
-406.8495937924582
-406.8562883942585
-406.8648612699929
-406.8725144227221
-406.87691568446576
-406.8769578811587
