-1.2576882724532208 0.0011873097279266115 0.00035367066617872405 1.2513757976784623 -0.0027168847084173553 -0.00015716639392082533 0.018709434322729167 0.6435385487113147 -9.441090800897633e-05 0.019391794816790993 -0.3218030098002103 -0.5575651528070719 0.019550272473323055 -0.32173370828565495 0.5574300979003209 -0.01891110137013091 -0.6407752453064595 5.899139088665449e-05 -0.018352040699175797 0.32240383547088486 -0.5586209711772263 -0.01840092765464646 0.3222880432690033 0.5585947510672079
-1.167320172194112 -0.13893474769818623 0.10858646930503345 1.2058311529019212 0.0038990625144380326 -0.005044411838805099 -0.0026190233799686176 0.6846279910756515 -0.01060685468434943 -0.02982090399753267 -0.29273515106479453 -0.5054239674943216 -0.057367574690963284 -0.24984976229045852 0.4143498577342918 0.003128358915823144 -0.5856910313358138 -0.0017793833634469568 0.023977105333267697 0.29435112539584996 -0.5199591027094113 0.01998332852064789 0.2867110717892068 0.5200278745767157
-1.0290274546658311 -0.2735913802853672 0.21518555814324006 1.1127260156278325 0.010661691172530678 -0.010188659613285267 -0.03669449632577378 0.6793119833257185 -0.021154250037037213 -0.08933890823327209 -0.24301045305174332 -0.4173781133197113 -0.145123840374537 -0.15774928871806698 0.23727809628281446 0.03683611268778725 -0.4891781539344076 -0.002998965578228924 0.077133830114079 0.24495036581204346 -0.44531439870148737 0.06931400497453856 0.23096306068930925 0.44487711576056876
-0.8514839729177195 -0.393617988524262 0.31297853124338526 0.9782599634912303 0.01762579147418496 -0.015606344208755485 -0.08254181136622606 0.627703736275825 -0.031431180763987085 -0.15643138751847394 -0.17550452495190935 -0.29854960315759943 -0.23857096007984233 -0.051967414734626766 0.038154846924803906 0.08041685631155213 -0.3565917838954961 -0.0032007817496139076 0.13879003572796897 0.17655544794164849 -0.33928093713170476 0.1273287931793762 0.15812114222578819 0.3373977069116542
-0.6465619192007315 -0.4884442839596526 0.3934364686412164 0.8115366300033563 0.02475306940894648 -0.021317412243525492 -0.13858411093373546 0.5320933263677408 -0.04115693382226821 -0.22764151936650998 -0.09440346723643336 -0.1565259629770851 -0.330988517520456 0.05871684849130595 -0.16722927002535198 0.1311418060132793 -0.1960613277478233 -0.002113518787821427 0.20581800089269803 0.09302552049365834 -0.20884660100594088 0.19090830736936368 0.07260319667738765 0.2043900770467128
-0.4291368119350081 -0.5467300304420347 0.4475786149876809 0.6245594879424775 0.03194175557156438 -0.027283492574046112 -0.20257219398455872 0.39733885302093624 -0.050098109609286935 -0.2987251735079345 -0.005332329112788247 -0.0015723169994107118 -0.41433622574534124 0.16365488127566225 -0.3599800864829294 0.18528309875349486 -0.018624161115348297 0.00036676786567212615 0.27428053363397586 -0.00017188338840457747 -0.06347166155466173 0.25608213177518635 -0.01984216467279046 0.05526866491129292
-0.21623173487654718 -0.5580387602934249 0.4676975537733622 0.43202247413921363 0.03897894719383085 -0.033396686285134744 -0.27150553170974606 0.231315553790241 -0.058098529034735606 -0.3648333213752226 0.08479010223945094 0.15367833253081176 -0.48004840315727404 0.25141860315839787 -0.5200641682689122 0.23816699863586804 0.1619897680210266 0.004122491378979973 0.33952515593639265 -0.09600063651898172 0.08508728576922014 0.3181174311232941 -0.11227530299854935 -0.09806763376623903
-0.025558781148178205 -0.5153305102423511 0.44955751595628846 0.250511795642943 0.04554770953150702 -0.03948260059170336 -0.3415719237439927 0.04525396099555861 -0.06509240271097444 -0.4207946414776272 0.16818004340483061 0.2950596597200733 -0.5202469531347123 0.31153162751387814 -0.6293170520862137 0.2844196789426196 0.33019382038715867 0.008774357471837945 0.3964460271644616 -0.18624250589738237 0.22351193174281037 0.3717878931685686 -0.19700001180024698 -0.24193162845051966
0.12651885968875692 -0.41771510781079885 0.39435166823738316 0.09698066391020671 0.051231786125310846 -0.045297047542301926 -0.40815313402376424 -0.14626774473892853 -0.07111729959736687 -0.46161459109322045 0.23696280704459752 0.40834690778446703 -0.5291699820756327 0.3364363097339214 -0.6748513661702609 0.31845743894728434 0.47003459912764556 0.01369126316276774 0.43993509039177264 -0.26224247951821633 0.3382156725285431 0.4118431658513524 -0.2663306209589882 -0.36216927797893494
0.22706814793537028 -0.27247520783965173 0.3094841552240125 -0.013315054206294717 0.055528053224620635 -0.050531926703146914 -0.4659841809124267 -0.32600438776632346 -0.0762927451375818 -0.48311640285533 0.2842202950348234 0.481258976226586 -0.5043946057756762 0.3231397931814052 -0.6518388924625004 0.335212814300131 0.5673010103007691 0.018047226135229823 0.4655024384556777 -0.3160178014347391 0.41714560846101706 0.43366749679376265 -0.3135999617347783 -0.44604049366028864
0.26832899546292416 -0.09522941355752866 0.20752385070578938 -0.06914259466911529 0.05788942635699721 -0.054840241991861126 -0.5095685806448841 -0.475674087650461 -0.0807880927545151 -0.4825909465026666 0.30511806210510284 0.505527809208719 -0.44739824695885066 0.27387983234880753 -0.5645585328315041 0.3309565484237734 0.6118096084904506 0.02094246826980684 0.46995525488415 -0.34150726049953667 0.4517261386270197 0.4339903707862995 -0.3342162187201476 -0.484267110358681
0.24863420642322398 0.09224640424550626 0.10351388331780893 -0.06524248314458826 0.05777767078707569 -0.05787122808883579 -0.5338392956745296 -0.5784591197868819 -0.08476715257265115 -0.4592884626429513 0.2977783390584958 0.47845521394241636 -0.3632417108177047 0.19555563803624867 -0.4253175256093964 0.3040193474498389 0.5992517287379466 0.02156188815852935 0.4519563603461085 -0.33564511958533333 0.43842156423720224 0.4114769122063121 -0.3264723336835198 -0.472712778449103
0.17241077308461022 0.2661370991663951 0.01160472553149986 -0.003348645892304437 0.05474957975225838 -0.05931892371811592 -0.534966734694289 -0.6219036515074742 -0.08831998519345342 -0.4145962208390145 0.26362929142468455 0.40344883285307576 -0.25953439826701635 0.0981638701574911 -0.25168082996961344 0.2551738278776928 0.5319967197376337 0.019335153414191928 0.4123084583900883 -0.29894383040501277 0.37939614737133776 0.36702480629524625 -0.2918507172890318 -0.41319205398622105
0.049340369512801165 0.4053604789052427 -0.05773080471868823 0.10808250737478187 0.04852690332644104 -0.05896909942226348 -0.5111186113221101 -0.6004207733490298 -0.0914172029078113 -0.3518390842789373 0.20710657094744994 0.28935146617863533 -0.14503882941967836 -0.007161633015175897 -0.06306112837101223 0.18758002975628713 0.41858063369392823 0.014050435989707337 0.3538560221476833 -0.23538357891989464 0.28210126380182843 0.3036579737585949 -0.23471716440762672 -0.3130726490456341
-0.1070058579268309 0.49540356087178 -0.09904022552712737 0.2553151099962956 0.03905847141454756 -0.056729920538635126 -0.4629177598717107 -0.5165516711144729 -0.09389112350988245 -0.27576647699385354 0.1348080294256124 0.14879168358186043 -0.028396163177258654 -0.10989483171190557 0.12225734876195439 0.1062699310695485 0.272147073370051 0.005896413719316607 0.28104051919802076 -0.1516658478127376 0.1578390047917071 0.22605690220958521 -0.16150570642922787 -0.18390589763063603
-0.280827359319497 0.5300970447417764 -0.1116786065195486 0.4215381119515789 0.02654133850491193 -0.05264025700479291 -0.3934348025663692 -0.3804916841430968 -0.0954608694061339 -0.19184774218390985 0.05437007978374147 -0.003922850360867746 0.08276833583897178 -0.2012448105565142 0.28901902768234605 0.01736636716541302 0.10814339623980007 -0.004581273884516622 0.19925097662075753 -0.056074186388890855 0.019857488447619802 0.1398648699770895 -0.07964631212133312 -0.039424971885491114
-0.4557307654949717 0.5111027938954742 -0.09854296389170884 0.589175745149514 0.011400142853115487 -0.04685225642129075 -0.30769963479645324 -0.20805081372490397 -0.09578874676541867 -0.1056321792153003 -0.026600756698923027 -0.15475654006727724 0.18229429417495144 -0.2746247940625916 0.4257585057966582 -0.07274050901271248 -0.057829169983356195 -0.016577038495512262 0.11412930491788509 0.04272382065180651 -0.11856354255492846 0.05095600445823952 0.003468469583939794 0.10641632454123194
-0.6161632728966884 0.4457805139932344 -0.0644671052804298 0.7418229161894688 -0.005763343704204608 -0.03959838765137862 -0.211914348735887 -0.01778676824298785 -0.09455318257339856 -0.02221113798610589 -0.10132844563241597 -0.29137105742584174 0.26552948578338 -0.3255918388377971 0.5246720633555402 -0.1581014321489691 -0.2117178958856923 -0.029140893491758437 0.031005323805508248 0.136646291051407 -0.245555130412758 -0.03516146064043064 0.08125548845563535 0.24098628009870707
-0.7484709250687205 0.3444846802332908 -0.014847138583468924 0.8655034888208333 -0.02423070866448701 -0.031157286286634677 -0.11257254823479436 0.17183647605633318 -0.0915113721321233 0.05407480401251645 -0.16432111066850272 -0.40385790050792447 0.3292031537710605 -0.35153381720083526 0.5810919859862602 -0.23365561247742708 -0.342051521900707 -0.041293454257819974 -0.04549056933489506 0.21883287880514612 -0.35150717542989873 -0.11374581973947129 0.14839019039691898 0.3539139079642115
-0.8415718251648029 0.21821669336419797 0.045231391852026404 0.9492879297705612 -0.04323860692635872 -0.02181825799674806 -0.01575291765766005 0.34454577992876806 -0.08653718226280462 0.11977509264344083 -0.21150136786202992 -0.4850233643575406 0.37120565143152934 -0.35129935830374 0.5928265779383356 -0.29543479909763204 -0.44024911978944153 -0.05210491218937904 -0.11160796288914406 0.28391363441880896 -0.4293375328164472 -0.18100881972840327 0.2009362267553367 0.43740190586188005
-0.8872784854358232 0.07715741227225596 0.11130286550385055 0.9854043135509696 -0.06203059937153256 -0.011857722082373588 0.07333403275041467 0.48739254335910875 -0.0796437050227296 0.1723206147812267 -0.24013479758103376 -0.5301312609826202 0.39045233832821663 -0.32491030109674623 0.5597249668783795 -0.34060361544096773 -0.5005302223006507 -0.060751501260819435 -0.16451031300778823 0.3280266838140535 -0.47440710972004085 -0.23414524822087515 0.23628828841517152 0.48616382344369874
-0.8804245826155758 -0.0698547491065869 0.17940348462222103 0.9690975339929423 -0.07989941665853953 -0.0015263713859542734 0.15052668970477812 0.5910228565123828 -0.07096898808272661 0.20997102669279769 -0.24868140159281585 -0.5367036537179573 0.38686457469989227 -0.27345366171574326 0.48350268539398095 -0.3673958987564323 -0.5196539796130861 -0.06654583704250608 -0.20223482411240984 0.34870702811677107 -0.4842462844230907 -0.27129220213841376 0.25302437020991086 0.4971918093989202
-0.8189582324011739 -0.21510351938363356 0.24567781317110648 0.8984628767384304 -0.09621445459991425 0.00895431412416268 0.21271579244387434 0.6494034715591364 -0.060769493840728134 0.23176184073442352 -0.23665993109243363 -0.5042633509593947 0.3615088695636471 -0.1991549819132024 0.36789597832091336 -0.37505095217890677 -0.4966381583290122 -0.0689593315781277 -0.22364314027923504 0.34478645575330247 -0.45829823825659666 -0.2914636634194329 0.25076617030511017 0.4695376151713682
-0.7040882183741302 -0.3513628696939807 0.3059041820382608 0.774380399545619 -0.11044011126992692 0.01938724396419906 0.25774056530381423 0.659346950775152 -0.049399494601052106 0.23751238034489489 -0.20459039169385276 -0.4342779898123161 0.3168281411596575 -0.1055777489614182 0.21903187704746854 -0.3637850157684997 -0.4326409530041798 -0.06764950878466112 -0.22838635252513612 0.3163336923110953 -0.3977836384408738 -0.2945384611142418 0.23011068856994277 0.4042004588662488
-0.5405349933751796 -0.47119404323953185 0.3551231543442931 0.6006476680606304 -0.12215212893626377 0.029592091242975186 0.2842760211246977 0.6201247463692148 -0.037301950300392975 0.2278865454975899 -0.154035078236369 -0.33024800895734374 0.25692139641064676 0.0021133130995686835 0.04588604099623745 -0.3348249531041401 -0.3310255156949181 -0.0624961644472034 -0.2169645712678321 0.26473281918506264 -0.30573250433810895 -0.2813023706281751 0.19263693201424 0.30419808539926607
-0.33675479742446845 -0.5664956996536301 0.3875821233117921 0.38423355969478873 -0.13105167856313366 0.03939444260657776 0.2918132254627631 0.5332820399179923 -0.024991025006338388 0.2045054013078194 -0.08772015196859836 -0.19792433881262922 0.18769390905741817 0.11701029799875334 -0.13944081279082213 -0.2904865670858095 -0.19758594564142296 -0.05365463433422595 -0.1908147294987783 0.19282316215827341 -0.18712556156185173 -0.25352996221956553 0.14098363923699583 0.17478745456519718
-0.10497661475836456 -0.6285985521661449 0.397184987923472 0.1355550634485429 -0.13698224681681823 0.04861556010557953 0.28071650363568124 0.4027768596157774 -0.013032592813215574 0.17007158343029194 -0.009678028241438461 -0.04554241305899889 0.11671395264861405 0.23056886943734015 -0.3219800251105209 -0.23425341453078632 -0.04078906552444391 -0.041611360879053025 -0.15243656169576514 0.10508682766639049 -0.04906500950664797 -0.21408460148602126 0.07892927258785884 0.02369910737527307
0.13924170656216706 -0.6491273145110038 0.37854946253215965 -0.13147463531724884 -0.13995220006699777 0.057072797713751164 0.25239088638690704 0.23532193929275394 -0.002008031567402247 0.12841922888246726 0.07468366650519963 0.11615784360408579 0.05259756126572981 0.3331801464222565 -0.4849285369308198 -0.17076994647041716 0.1281431283986042 -0.027230430147044765 -0.10544539885519082 0.0077463018735975005 0.09913730009800936 -0.16694540480994788 0.011403022488653885 -0.1387843998698438
0.3780999359979964 -0.6215822738969761 0.32849268597726133 -0.39991505724889015 -0.14013729892564109 0.06458034180577106 0.20949213301834907 0.04080454870766913 0.007536612984338782 0.08440629310203906 0.15870369249520652 0.27427517031278564 0.003912185424963028 0.41520677556404384 -0.6115800192627391 -0.1056629758889422 0.2955564945523674 -0.011757191948845511 -0.05453644558476622 -0.09136314803499047 0.2462676808001162 -0.11707544461060333 -0.05569544746690909 -0.30007184020967353
0.5932880343911578 -0.5435062218925262 0.2476263545536092 -0.6509296218302189 -0.13789574434269355 0.07097879941238244 0.1561221815103319 -0.16743602271480282 0.015164500130832212 0.043554317825493745 0.23488480033361217 0.41471968521272345 -0.022315725320419325 0.46842210092806147 -0.6879098654189094 -0.04510594772888485 0.44628992666218364 0.003243842585325627 -0.0051743605346817245 -0.1832521432303244 0.37989075048608956 -0.07006159435575146 -0.11591031836073504 -0.44609742816864795
0.7681955029096242 -0.4184480727572418 0.14129696929460536 -0.865808267389335 -0.13372685483610108 0.07615688804664515 0.09783943293423346 -0.3728419323353368 0.020629986676239873 0.011420166604520002 0.2956516819335304 0.5237491915875462 -0.022017873303828695 0.48745129820850475 -0.7051787826323791 0.004869823649876953 0.5652264951478739 0.016041755386574225 0.036939357906251524 -0.2586805451922301 0.48761032093890655 -0.031498240276587576 -0.1629509440838877 -0.5627041555311071
0.8900698601449714 -0.25697858802932194 0.019328504541422015 -1.028498532466109 -0.12821854399647237 0.08008559538050974 0.04136736833144312 -0.5566928803492526 0.023948272982439463 -0.007235048294786146 0.3343846362614935 0.5899233756683774 0.004999278693946996 0.4707927506006368 -0.6616946816341654 0.03924187334510574 0.6394148951937066 0.02497434883124726 0.06662149946627753 -0.3093723893696783 0.558699816626709 -0.006182623780801988 -0.19158363846738805 -0.6375904095386394
0.9517051164103195 -0.07599313448643023 -0.1056253709341345 -1.1281811892552345 -0.12194410097964595 0.0828298366265419 -0.0061164384432756515 -0.7001231967792437 0.025415827812521913 -0.009293396351015617 0.3464978488648053 0.6060457865610583 0.05501937589117488 0.42106426792373514 -0.5631085026405553 0.05482708822809822 0.6601519580321182 0.02872530551929779 0.08005347715984394 -0.3293551059677743 0.5857780323245176 0.002698285348163081 -0.19851455611166854 -0.6622438127047194
0.9523227005313862 0.10385393742165606 -0.2206389862148307 -1.1611567031318468 -0.11535907384338415 0.08454006759941671 -0.03806475032789621 -0.7869250535434716 0.025575621873871527 0.006102539059596552 0.3302827137077878 0.5704967938258413 0.1212663016225887 0.3443919456845417 -0.42117625489294097 0.0508522501613497 0.6245940230001129 0.026568695042526732 0.07545562480215624 -0.31603603569834476 0.5661377506717943 -0.005841700644087003 -0.18301966922486812 -0.6335174221798884
0.8975224031982079 0.2620029246946593 -0.31506853986391814 -1.1314269653101359 -0.10871443310927113 0.0854176211031252 -0.04977680398967731 -0.8064699421267791 0.02510120706112642 0.037380394657782784 0.2872352323058777 0.48754282433876905 0.19531670027744988 0.24918374887028344 -0.2514044466644028 0.02906088076144146 0.5363083928870739 0.018512194714967713 0.053410672639853954 -0.27070435025428097 0.502241656549804 -0.03041321417454367 -0.14709472978570018 -0.5541787888314207
0.7983661900653588 0.381908341415038 -0.38221177786769056 -1.049778134066574 -0.1020274257372994 0.08567376982647221 -0.03939091505304322 -0.7559197348801696 0.02464802956047702 0.08086190398401187 0.22176851811256182 0.36652055125923444 0.26859176734800955 0.1447066068960544 -0.07042116313257758 -0.00667282002473879 0.4045970155331244 0.005300118332408714 0.01671655683734775 -0.19828362991031415 0.4012562732119316 -0.06754662352063914 -0.09506524862080827 -0.43245748422493957
0.6697721724479169 0.45374986420810626 -0.4196814463693701 -0.9316656247122601 -0.09511762199216292 0.0854944868031752 -0.008286902023868942 -0.6408967813527989 0.02470486122470987 0.13147915531660284 0.14040373720383154 0.2201451647154393 0.33351943433736214 0.03985725660186817 0.10623423901549131 -0.051097476838476076 0.2428424366024903 -0.011735275865515758 -0.03016797721300467 -0.10643396745111096 0.27375905734900324 -0.11237744264265513 -0.032810140521406864 -0.2804828469227717
0.5285116048318407 0.4751809037846531 -0.42867629650594213 -0.794560525444285 -0.08769596817228212 0.08502659745024836 0.03925037341215034 -0.47433043428162464 0.025502237447499194 0.18364151109276666 0.0507092916834871 0.06249801049927176 0.38418368543570486 -0.057653743614798116 0.265486419805462 -0.09847445941913284 0.06635117882231654 -0.030898191079067123 -0.08190561760049238 -0.004272715794370726 0.1320363699354896 -0.15947617015500132 0.03320285081795618 -0.11242603649236563
0.39120219542241597 0.4502047397545755 -0.41269599562708115 -0.6554675109200256 -0.07947579655980928 0.08438318916904972 0.09697090400261406 -0.2739816326072963 0.026993734390200915 0.2320169353054752 -0.039723636370680084 -0.09279333959396217 0.41649851321788794 -0.14165852810527677 0.3972840268171676 -0.1433729654029202 -0.10966489795637065 -0.05038158401701083 -0.13307511618066636 0.09890235269131382 -0.011602051584214202 -0.20362691192256097 0.09678677187875864 0.05745717249385808
0.27255591991002803 0.38695885705274324 -0.3762568715515003 -0.5291243192835238 -0.07023341603768021 0.08365023964922579 0.15785421029579114 -0.0593581536101203 0.028915680281623952 0.27208144853301336 -0.12406333790089363 -0.23384546787691507 0.42806739242914105 -0.20758431276768316 0.4945596425396014 -0.1812032568337211 -0.27166286779647536 -0.06847168586852492 -0.1787580091740823 0.19459803066457265 -0.1460611514578736 -0.24036527126823215 0.15263583247502244 0.2162411039764596
0.1843049636941951 0.2952821424186526 -0.32395372216633395 -0.42704128058488905 -0.0598922591538114 0.08291162856024509 0.21520844096135772 0.15094195371824068 0.030864787306821687 0.3003874945445391 -0.1966827890924543 -0.35116906508004003 0.4179003403668065 -0.2522873274938574 0.552854017644186 -0.20849031295674597 -0.40857604964022887 -0.08368877020117084 -0.21493103435708974 0.2757693052073288 -0.26223977985989905 -0.26626816886324917 0.1966567283908318 0.35322487802855446
0.13465971791097214 0.18492472811074095 -0.2600142381074275 -0.3572650478265804 -0.04850381996227697 0.0822497340473312 0.26339071362032807 0.3410284953802461 0.03239787441422801 0.31461288896202955 -0.2533164629554247 -0.4378301179508527 0.38614994171897504 -0.2738829022459797 0.5699394609362092 -0.22290666834808287 -0.5121581751780915 -0.0948520578890466 -0.23858781108994834 0.3370340449385985 -0.353268242254439 -0.2790259930240382 0.2260200428746937 0.46022507438622856
0.1282723777544215 0.06458325743675368 -0.18826447284390796 -0.32459815888879634 -0.036239832727498304 0.08175039496055997 0.2981405252183381 0.4985127187892096 0.033094926191742 0.3134760448469134 -0.29102807226439303 -0.48928447419225024 0.3339381487712645 -0.2716274997014162 0.5455740110395567 -0.2231701807108781 -0.5768426415196074 -0.10109853244570628 -0.24772595908999995 0.3746742495706271 -0.4144590627698792 -0.2773418793170554 0.23906171168206158 0.531562372996523
0.16647214185141812 -0.058217473409090496 -0.11239400054700092 -0.3310154369705337 -0.023349164808675313 0.08149468846695636 0.31659114201264094 0.6145307920833504 0.032600004260198434 0.29660691360588726 -0.30809774440963705 -0.5031379071156868 0.2632813028964879 -0.2459272770262394 0.48146488559420053 -0.20890448682246904 -0.5995243582325447 -0.10187481019597051 -0.24125933639642955 0.3865013446721673 -0.443103208846851 -0.26082073146201973 0.23514213176441243 0.5638269459963546
0.24756308484706552 -0.17667746221317554 -0.03635827830784028 -0.3760386208887211 -0.010118350226291435 0.08154516436417945 0.31709476455727553 0.6833376983817829 0.030636108249628483 0.2644377028222335 -0.3039189458714688 -0.47894252540860843 0.1771352162774485 -0.1984838005756772 0.3814798927845746 -0.1805072489240898 -0.5793459703996143 -0.09692283465794804 -0.218937764387426 0.3717346404799335 -0.43828003529269616 -0.22984180260154466 0.21450747082262897 0.5557211987588826
0.36706092001022156 -0.28402430498319725 0.03524407532714481 -0.456952209188441 0.003173368647729602 0.08192724057806197 0.2990050123757911 0.7018181296883208 0.027004558734501503 0.2181470884594698 -0.2789709354209852 -0.41816669636969583 0.07948392638799895 -0.13251562356438049 0.2519559277232444 -0.13908911673186977 -0.5176252815184895 -0.08628841260552476 -0.18131278582830668 0.330952054135451 -0.40077819200608134 -0.18549364639120877 0.1782216770550553 0.5079773146151895
0.5178461907019354 -0.37289269619611376 0.09699515978981876 -0.5688218846681687 0.016292864747729036 0.08260514277924559 0.2625176492627357 0.6691464276454225 0.02158294035119758 0.15966525422354155 -0.23487205280414844 -0.3243060352900446 -0.024631343100973254 -0.05299273467910572 0.10199002647074443 -0.0864544698741704 -0.4179522972194493 -0.0703441123131001 -0.1297728427049428 0.2661517750232283 -0.3331508564150659 -0.12955973939068857 0.1281603856430093 0.4234921709214614
0.6902975152255738 -0.43508668403121264 0.14285898645475997 -0.704366915672184 0.02908647866449531 0.08345535002975192 0.20861577250650648 0.5867372852022156 0.014325580023195152 0.09170260564290467 -0.1744990539238201 -0.20308732992914058 -0.12920598644920872 0.03330248106537851 -0.05651984084169618 -0.025138390355016013 -0.28641153827114996 -0.04982920307206355 -0.06662978870286308 0.1808910734881206 -0.23986899179422044 -0.06455116492711949 0.06705180957542826 0.3075191484968777
0.8725352039933704 -0.46199880132272514 0.16689667726287308 -0.8538102504919718 0.041504058459803386 0.0842406729209305 0.13912813579341507 0.45852742639221533 0.005276063091250435 0.017775558233213362 -0.10210454340545902 -0.06268447204258949 -0.227614224535371 0.11802688647690338 -0.2094518438318431 0.041577761702967474 -0.13177972241812969 -0.025888026334343714 0.004784529873670804 0.08043391815211715 -0.12749341063025266 0.006281837509512511 -0.0014918209016997904 0.1679458724712892
1.0508922599141748 -0.4458361886610456 0.16448517790330308 -1.0048982017320094 0.053606415865576705 0.08459206558971011 0.05690129999082047 0.2915166230023079 -0.005407775563894331 -0.05784904975298379 -0.02333476663098331 0.08631770261271535 -0.31321160174477447 0.1919872810945706 -0.34169218452316513 0.10970054373057098 0.03447343857721206 -7.589382305579965e-05 0.08008032461903321 -0.02821365084839359 -0.004699822308984972 0.07897660145481498 -0.0730196433983035 0.015318720040532497
1.2107118008960986 -0.3815933812780255 0.13380638934123043 -1.143298530211919 0.06554221206648517 0.08401235896038592 -0.03399960483378096 0.09636586172275828 -0.017420221492187422 -0.1303315691324872 0.05496904397572871 0.23133817949804272 -0.3801682959299281 0.24630318259253967 -0.43909577947645545 0.17468030641213708 0.19860104802194695 0.02568621016295873 0.15390685217960906 -0.13651445002360513 0.11800167938152972 0.14902079972659069 -0.14241554829287795 -0.13747242249192976
1.3374276790777453 -0.2693352481063739 0.07710061660346733 -1.2535486009629306 0.07750145672820631 0.0819009998992183 -0.1281682120810262 -0.11228178732071706 -0.030277444501114425 -0.19464353919049202 0.12528624712316375 0.35880171390958443 -0.424326483612237 0.27385308259153823 -0.49078372558208044 0.2317453239677283 0.3456007395504672 0.049251784724551134 0.2202812069258034 -0.23499408250229442 0.2290235233100704 0.2116659287486368 -0.20428626104334716 -0.276121500060294
1.417846381441366 -0.11603158701234591 0.001087154975459791 -1.3205902495386734 0.08964060662018901 0.07761502749695828 -0.2189328227271539 -0.31612984496821456 -0.043300611650148056 -0.24608659286240134 0.18025157842593043 0.4556939010178739 -0.4438511941779505 0.27060278653728287 -0.4911453563836403 0.27638260587053215 0.46086090819751996 0.06847247262609166 0.2731565038970056 -0.31422465752718365 0.3169549171142356 0.2623942517377089 -0.2535362717067184 -0.38642448925652995
1.441461953674994 0.06397661593073282 -0.08385346478514205 -1.3317266383452966 0.10200155529731067 0.07055622318153487 -0.2987856458542409 -0.49463054328032174 -0.0556322908889044 -0.28092101432317723 0.2137147637231769 0.511480869472841 -0.43946187371309986 0.23640879087804095 -0.44089889412206257 0.3049312611761681 0.5321968389809336 0.08149191681775064 0.3071967835827665 -0.36611124192068883 0.3721580291793794 0.2974868839465655 -0.28604914642305496 -0.45626517957104185
1.4016406410952924 0.25052088192150795 -0.16565457732662212 -1.2785972701021002 0.11445296052578233 0.06026837040836436 -0.360221847312997 -0.6275330715903179 -0.0663084727988408 -0.29693667301268467 0.2217792498971487 0.51987876087789 -0.4141712637666415 0.1750177482751744 -0.34685779302269265 0.3151393429027186 0.5518415017934403 0.0870395295402722 0.31860167783452026 -0.38519969798674725 0.38838015259478387 0.31456146175663746 -0.29932120150011376 -0.4775973962265585
1.2965068033787375 0.4210900098085659 -0.23306385251649217 -1.1586365180995273 0.12667140323919737 0.04652509382868426 -0.396881803438929 -0.6982905761537807 -0.07437968497867727 -0.29379489808057635 0.20351920841121846 0.48002318063528154 -0.37262183047828296 0.09325660610340863 -0.2204662955000341 0.3065404272260577 0.517855611223911 0.0846497097225413 0.30577232558383993 -0.36965173324632655 0.3639067420764729 0.31294254094136154 -0.29287297247854494 -0.44791071924055953
1.1293613873118225 0.5553162551535015 -0.2777951390930059 -0.975614699432418 0.1381720659414283 0.029385009452319987 -0.4047509423370645 -0.6973931891603014 -0.07907191224892969 -0.27304748912305193 0.16114437901784076 0.39661955605888816 -0.3202431472245032 -0.0002518549810710045 -0.07564609212419614 0.2805332713979316 0.43446157686230175 0.07474045188957561 0.2696186196699714 -0.32158486712376383 0.3018988609724558 0.2937550048439569 -0.2683061229292191 -0.37068418543096937
0.9084796272522795 0.6389676260881173 -0.29565813026025395 -0.7390399129922073 0.14837696978447393 0.009203541437804894 -0.38300774512594865 -0.6245240941363868 -0.07992349246852308 -0.23781859873116584 0.0995558756923411 0.279046021917649 -0.2624807436479873 -0.09647727790706277 0.07339126036453404 0.24013792918468174 0.31123000626005604 0.058526103490124846 0.2134124585559144 -0.24665663214384664 0.20978542389793514 0.25970354600165946 -0.22897323253227472 -0.25474622256906565
0.6462364432517975 0.6661192313545046 -0.28650077611960245 -0.4627069499814746 0.15669604659327818 -0.013401870075571164 -0.3342209804031986 -0.4887164146602377 -0.07686964412225605 -0.19226236856378892 0.02544435677317735 0.13968862599772675 -0.20424724198180183 -0.187106082884317 0.21382876643725968 0.18950583230244908 0.16139532382839342 0.03779709334680824 0.14224108865910776 -0.15304575887832636 0.09791941995351884 0.21461394020445504 -0.17938152740124072 -0.11264458540311126
0.35768519693604567 0.6389826310461549 -0.2532787705831096 -0.16274933360075547 0.16260606659051371 -0.03762235603389685 -0.2638254254580875 -0.30640635962291984 -0.07024226063254815 -0.14095486345043712 -0.053783482597950405 -0.007959739431262455 -0.1496355916296265 -0.26523626689468244 0.33525236815113346 0.13332232774943167 -0.0002346028788721965 0.014637105166386865 0.06223245668056809 -0.050140352834194005 -0.022095808582792965 0.16287099306004654 -0.12449738639403796 0.04134323595719006
0.05888685497440425 0.5658376000889793 -0.2007561672588856 0.1442516347653998 0.16570441044805537 -0.06254418236980622 -0.17905809805042153 -0.098139753209857 -0.0606866477547296 -0.0883579655293224 -0.13098800776449712 -0.1509950675673052 -0.10185480187118495 -0.3256516324128695 0.4299557854243355 0.07625279533669284 -0.15921231326438282 -0.008854971840294193 -0.02024448061074287 0.052725900451028714 -0.13897407014990434 0.10888855335742428 -0.06911898679990672 0.19312511251329995